##############################################################################
### CIF submission form for results of Rietveld refinements (IUCr journals)###
###                                              Version 10 February 2005  ###
##############################################################################

# This is an electronic "form" for submitting the results of a Rietveld 
# refinement of a model against powder diffraction data to an
# IUCr journal as a Crystallographic Information File (CIF). 
# 
# The data blocks and their ID's are as follows:
#
# Data block         _pd_block_id 
# ----------         ------------
# data_a_publ     (none)        (publication details)
# data_a_overall   2011-01-19T09:39|a|Sergei_Remennik|Overall    
#   (overall Rietveld results)
# data_MgZnCaLi_phase_1   2011-01-19T09:39|MgZnCaLi_phase_1|Sergei_Remennik||   
#   (information for phase 1, MgZnCaLi)
# data_Mg_phase_2   2011-01-19T09:39|Mg_phase_2|Sergei_Remennik||   
#   (information for phase 2, Magnesium)
# data_a_pdp      2011-01-19T09:39|a_pdp|Sergei_Remennik|pw  
#   (powder profile)
#=============================================================================

data_a_publ


_publ_section_comment
;
(type here to add)
;


_audit_update_record
;
2011-01-16 # Formatted by publCIF
;
#=============================================================================


_audit_creation_method                 "from fullprof files manualy"
_audit_creation_date                   2011-01-19T09:39

# 1. SUBMISSION DETAILS

_publ_contact_author_name         'Sergei Remennik'
_publ_contact_author_address
;
      Department of Materials Engineering,
      Technion-Israel Institute of Technology,
      Technion City, Haifa 32000
      Israel
;
_publ_contact_author_email        saggym@gmail.com
_publ_contact_author_fax          '972 482 95826'
_publ_contact_author_phone        '972 544 571659'

_publ_requested_journal           'Journal of Applied Crystallography'

_publ_requested_coeditor_name     ?

_publ_requested_category          FA 

_publ_contact_letter
; Please consider this CIF submission for publication as a suplementary data
 to a full paper in Acta Cryst. Section A. The figures, Transfer of Copyright
 Agreement form will be sent on receipt of your acknowledgment letter.
;

#=============================================================================

# 2. PROCESSING SUMMARY (IUCr Office Use Only)

_journal_date_recd_electronic     ?
_journal_date_to_coeditor         ?
_journal_date_from_coeditor       ?
_journal_date_accepted            ?
_journal_date_printers_first      ?
_journal_date_printers_final      ?
_journal_date_proofs_out          ?
_journal_date_proofs_in           ?
_journal_coeditor_name            ?
_journal_coeditor_code            ?
_journal_coeditor_notes           ?
_journal_techeditor_code          ?
_journal_paper_category           ?
_iucr_compatibility_tag           ?
_journal_techeditor_notes         ?
_journal_coden_ASTM               ?
_journal_name_full                ?
_journal_year                     ? 
_journal_volume                   ?
_journal_issue                    ?
_journal_page_first               ? 
_journal_page_last                ?
_journal_suppl_publ_number        ?
_journal_suppl_publ_pages         ?

#==============================================================================

# 3. TITLE AND AUTHOR LIST

_publ_section_title
;
Crystal Structure of a New Quaternary Mg-Zn-Ca-Li Phase
;

# The loop structure below should contain the names and addresses of all
# authors, in the required order of publication. Repeat as necessary. 

loop_
    _publ_author_name
    _publ_author_address
    'Sergei Remennik'
;     Department of Materials Engineering, 
Technion-Israel Institute of Technology, 
Technion City, Haifa 32000,
Israel
;
    'Chunjie Xu'
;     School of Materials Science & Engineering, 
Xi'an University of Technology, 
Xi'an, Shaanxi, 710048, 
People's Republic of China
;
    'Reut Brant'
;     Department of Materials Engineering, 
Technion-Israel Institute of Technology, 
Technion City, Haifa 32000,
Israel
;
   'Louisa Meshi'
;     Department of Materials Engineering, 
Ben-Gurion University of the Negev, 
Beer Sheva, 84105, Israel
;
   'Dan Shechtman'
;     Department of Materials Engineering, 
Technion-Israel Institute of Technology, 
Technion City, Haifa 32000,
Israel
    MSE, 
Iowa State University, 
Ames, Iowa, 50011, 
United States
;

#==============================================================================

# 4. TEXT

_publ_section_synopsis
;
Structure solution Rietveld refinement of a new intermetallic Mg-Zn-Ca-Li
quaternary phase.
;

_publ_section_abstract                           
;
In course of a study of high strength-ductile alloys based on Mg-Li system, we
have identified new intermetallic Mg-Zn-Ca-Li quaternary phase with a
composition of Mg31Zn26Ca13Li8. The structure of this phase was investigated
in a transmission electron microscope using Large Angle Convergent Beam
Electron Diffraction (LACBED)technique. Full atomic model was proposed using
direct methods applied on powder X-ray diffraction data. The phase has a cubic
primitive unit cell with lattice parameter a=9.386(8) \%A; its crystal
symmetry can be described by the Pm3 (No. 200) space group. The unit cell of
the new phase exhibits a new structure type, which is a variant of Mg2Zn11
structure. The reliability factors characterizing the Rietveld refinement
procedure are: Rp = 8.6 %, Rwp = 12.4 %, RB =6.9 % and Rf = 4.4 %.
;

_publ_section_exptl_prep     
;
The title compound was prepared by melting of pure Mg (99.8), Zn (99.9), and
master alloys Mg-7.5wt%Li and Mg-35wt%Ca in a plain carbon steel crucible
under protective argon atmosphere. Nominal composition of
Mg-21.5%Zn-6.2%Ca-1.4%Li (wt%) give alloy ingot containing only the titel
phase and magnesium matrix.
;

_publ_section_exptl_refinement  
;
The refinement was performed applying Rietveld method utilized in FullProf
program. Reliability factors and number of refined parameters in the matrix
are inserted in corresponding tables.
;
_publ_section_references   
;
March (1932). Z. <i>Kristallogr.</i> 81, pp. 285--297; Dollase (1986). <i>J.
Appl. Cryst.</i> 19, pp. 267--272 Young, R. A., and D. B. Wiles. <i>J. Appl.
Cryst.</i> 15 (1982) pp. 430--438. Rodrigues-Carvajal, J. Program
<i>FULLPROF-98</i> Version 0.2. 1998. Sheldrick, G. M. <i>SHELXL97</i>,
Program for Crystal Structure Refinement, University of Goettingen, Germany,
release 97-2. 1997. Sheldrick, G. M. <i>SHELXS97</i>, Program for Automatic
Solution of Crystal Structure, University of Goettingen, Germany, release
97-2. 1997. LeBail, A, H Duroy, and J L Fourquet. <i>Mater. Res. Bull.</i> 23
(1988): 447--452. Cagliotti, G., A. Paoletti, and F. P. Ricci. <i>Nucl.
Instrum.</i> 3 (1958): 223--228.
;

_publ_section_acknowledgements
;
Authors would like to thank: Dr. Alex Berner and Catherine Cytermann for help
with composition analysis; and Dr. Tzipi Cohen-Hyams for assistance with FIB
sample preparation. Special thanks addressed to Jacob Kinstler.
;

#=============================================================================
# OVERALL RESULTS OF THE RIETVELD REFINEMENT
#=============================================================================

data_a_overall

_pd_block_id                     2011-01-19T09:39|a|Sergei_Remennik|Overall 

# The following three fields describe the preparation of the specimen. 
# The cooling rate is in K/min.  The pressure at which the sample was
# prepared is in kPa.  The temperature of preparation is in K.
 
    
_pd_prep_pressure                 0       
_pd_prep_temperature            720        



# The following items are used to identify the programs used.

_computing_structure_refinement     Fullprof
_refine_ls_number_parameters           41
_refine_ls_goodness_of_fit_all         1.90
_refine_ls_number_restraints           0

# Overall powder R-factors

_pd_proc_ls_prof_R_factor              0.086
_pd_proc_ls_prof_wR_factor             0.124
_refine_ls_matrix_type                 full

# pointers to the data blocks containing information on the phases
loop_   
  _pd_phase_block_id
      2011-01-19T09:39|MgZnCaLi_phase_1|Sergei_Remennik||
      2011-01-19T09:39|Mg_phase_2|Sergei_Remennik||


# pointers to the data blocks containing the powder diffraction data 
loop_  
  _pd_block_diffractogram_id
      2011-01-19T09:39|a_pdp|Sergei_Remennik|pw
     

#==============================================================================


data_MgZnCaLi_phase_1

_pd_block_id 2011-01-19T09:39|MgZnCaLi_phase_1|Sergei_Remennik|| 

loop_
 _pd_block_diffractogram_id 2011-01-19T09:39|a_pdp|Sergei_Remennik|pw


# 5. CHEMICAL DATA

_chemical_name_systematic  

;
Magnesium zinc calcium litium
;

_chemical_name_common             'Magnesium zinc calcium litium'
_chemical_formula_structural      'Mg31 Zn26 Ca13 Li8'
_chemical_formula_iupac           'Mg15.5 Zn13 Ca6.5 Li4'  
_chemical_formula_sum             'Ca6.5 Li4 Mg15.5 Zn13'
_chemical_formula_weight          1515.06



#==============================================================================

# 6. POWDER SPECIMEN AND CRYSTAL DATA

_space_group_crystal_system            cubic
_space_group_IT_number                 200
_space_group_name_H-M_alt              'P m -3'
_space_group_name_Hall                 '-P 2 2 3'
_symmetry_space_group_name_hall        '-P 2 2 3' 
_cell_formula_units_Z                  1
_cell_volume                           827.09

loop_
_symmetry_equiv_pos_site_id
_symmetry_equiv_pos_as_xyz
0 'x ,  y ,  z'
1 '-x , -y ,  z'
2 '-x ,  y , -z'
3 'x , -y , -z'
4 'z ,  x ,  y'
5 'z , -x , -y'
6 '-z , -x ,  y'
7 '-z ,  x , -y'
8 'y ,  z ,  x'
9 '-y ,  z , -x'
10 'y , -z , -x'
11 '-y , -z ,  x'
12 '-x , -y , -z'
13 'x ,  y , -z'
14 'x , -y ,  z'
15 '-x ,  y ,  z'
16 '-z , -x , -y'
17 '-z ,  x ,  y'
18 'z ,  x , -y'
19 'z , -x ,  y'
20 '-y , -z , -x'
21 'y , -z ,  x'
22 '-y ,  z ,  x'
23 'y ,  z , -x'


_cell_length_a 9.3868(2)
_cell_length_b 9.3868(2)
_cell_length_c 9.3868(2)
_cell_angle_alpha 90.0
_cell_angle_beta 90.0
_cell_angle_gamma 90.0
_cell_measurement_reflns_used 200
_cell_measurement_temperature 298
_cell_measurement_theta_min   4.71
_cell_measurement_theta_max   49.72




_exptl_crystal_density_diffrn     3.041(7)
_exptl_crystal_density_method     'not measured'
_diffrn_ambient_temperature       298 
#_exptl_crystal_thermal_history    'Heat treated at 400 \%C for 15 min'        



#==============================================================================

# 9. ATOMIC COORDINATES AND DISPLACEMENT PARAMETERS
loop_
_atom_type_symbol
_atom_type_oxidation_number
_atom_type_number_in_cell
Ca  0  6.5
Li  0  4.0
Mg  0  15.5
Zn  0  13.0


loop_
_atom_site_label
_atom_site_type_symbol
_atom_site_Wyckoff_symbol
_atom_site_fract_x
_atom_site_fract_y
_atom_site_fract_z
_atom_site_B_iso_or_equiv
_atom_site_occupancy

Li0  Li   b 0.5     0.5     0.5     5.551 1.0
Mg1  Mg   e 0.23089 0.0     0.0     1.435 0.7917
Zn2  Zn   e 0.23089 0.0     0.0     1.435 0.2083
Ca3  Ca   f 0.30674 0.0     0.5     2.015 1.0
Mg4  Mg   g 0.18606 0.5     0.0     3.275 0.9167
Ca5  Ca   g 0.18606 0.5     0.0     3.275 0.0833
Mg6  Mg   i 0.22550 0.22550 0.22550 2.381 0.46875
Zn7  Zn   i 0.22550 0.22550 0.22550 2.381 0.15625
Li8  Li   i 0.22550 0.22550 0.22550 2.381 0.375
Mg9  Mg   k 0.5     0.25554 0.35485 1.103 0.125
Zn10 Zn   k 0.5     0.25554 0.35485 1.103 0.875

loop_
    _diffrn_radiation_type                   
    _diffrn_radiation_wavelength
    _diffrn_radiation_wavelength_wt          
       CuK\a~1~ 1.54056 0.671
       CuK\a~2~ 1.54439 0.329
_refine_ls_R_I_factor                 0.069
_refine_ls_R_factor_all               0.044

#==============================================================================

data_Mg_phase_2


_pd_block_id      2011-01-19T09:39|Mg_phase_2|Sergei_Remennik||
loop_   
  _pd_block_diffractogram_id
    2011-01-19T09:39|a_pdp|Sergei_Remennik|pw

# 5. CHEMICAL DATA

_chemical_name_systematic                           
;
Magnesium 
;
_chemical_name_common             Magnesium
_chemical_formula_structural      'Mg'
_chemical_formula_iupac           'Mg'  
_chemical_formula_sum             'Mg'
_chemical_formula_weight          24.305
_chemical_melting_point           922


# 6. POWDER SPECIMEN AND CRYSTAL DATA

_space_group_crystal_system            hexagonal
_space_group_IT_number                 194
_space_group_name_H-M_alt              'P 63/m m c'
_space_group_name_Hall                 '-P 6c 2c'
_symmetry_space_group_name_hall        '-P 6c 2c'
_cell_formula_units_Z                  2
_cell_volume                           45.81

loop_
_symmetry_equiv_pos_site_id
_symmetry_equiv_pos_as_xyz
0 'x ,  y ,  z'
1 'x  - y ,  x ,1/2 + z'
2 '-y ,  x  - y ,  z'
3 '-x , -y ,1/2 + z'
4 '-x  + y , -x ,  z'
5 'y , -x  + y ,1/2 + z'
6 '-y , -x ,  z'
7 '-x , -x  + y ,1/2 + z'
8 '-x  + y ,  y ,  z'
9 'y ,  x ,1/2 + z'
10 'x ,  x  - y ,  z'
11 'x  - y , -y ,1/2 + z'
12 '-x , -y , -z'
13 '-x  + y , -x ,1/2 - z'
14 'y , -x  + y , -z'
15 'x ,  y ,1/2 - z'
16 'x  - y ,  x , -z'
17 '-y ,  x  - y ,1/2 - z'
18 'y ,  x , -z'
19 'x ,  x  - y ,1/2 - z'
20 'x  - y , -y , -z'
21 '-y , -x ,1/2 - z'
22 '-x , -x  + y , -z'
23 '-x  + y ,  y ,1/2 - z'

_cell_length_a 3.19763
_cell_length_b 3.19763
_cell_length_c 5.17375
_cell_angle_alpha 90.0
_cell_angle_beta 90.0
_cell_angle_gamma 120.0
_cell_measurement_reflns_used 16
_cell_measurement_temperature 298
_diffrn_ambient_temperature   298 
_exptl_crystal_density_diffrn     1.7
_cell_measurement_theta_min   16.15
_cell_measurement_theta_max   49.99


loop_
_atom_type_symbol
_atom_type_oxidation_number
_atom_type_number_in_cell
Mg  0  2.0

loop_
_atom_site_label
_atom_site_type_symbol
_atom_site_Wyckoff_symbol
_atom_site_fract_x
_atom_site_fract_y
_atom_site_fract_z
_atom_site_B_iso_or_equiv
_atom_site_occupancy
Mg Mg c 0.3333 0.6667 0.75 1.489 1.0 

loop_
    _diffrn_radiation_type                   
    _diffrn_radiation_wavelength
    _diffrn_radiation_wavelength_wt          
       CuK\a~1~ 1.54056 0.671
       CuK\a~2~ 1.54439 0.329

_refine_ls_R_I_factor                 0.044
_refine_ls_R_factor_all   0.0457
  _pd_proc_ls_pref_orient_corr 
;
Preferred orientation of Mg phase was treated using March-Dollase function:
P~h~ = G~2~+(1-G~2~)exp(G~1~\a~h~^2^), 
   axis (110), G~1~ = 0.505(8), G~2~ = 0.004(7) 
(March, 1932), (Dollase, 1986)
;

#==============================================================================

data_a_pdp
_pd_block_id    2011-01-19T09:39|a_pdp|Sergei_Remennik|pw


_pd_spec_size_axial               45.5     
_pd_spec_size_thick                4       


_pd_spec_mounting                          
; Compacted and heat treated powder pellets
;
_pd_spec_mount_mode         reflection    
_pd_spec_shape              flat_sheet    						       
_pd_char_particle_morphology      Elongated_shape                      
_pd_char_colour              white_metallic         


# 7. EXPERIMENTAL DATA


_exptl_special_details
; The polished sample achieved by powder compaction after heat treatment (HT)
 at 400 \%C for 15 min. This sample exhibit two phase structure with minor
 oxidized areas located on the surfaces of pores.
;

loop_     
  _pd_phase_id
  _pd_phase_block_id
  _pd_phase_mass_%
  1  2011-01-19T09:39|MgZnCaLi_phase_1|Sergei_Remennik|| 46.10
  2  2011-01-19T09:39|Mg_phase_2|Sergei_Remennik||  53.90

  _pd_proc_ls_profile_function
;
  In the extraction procedure a pseudo-Voigt function (Young and Wiles 1982) 
 was used for modeling a peak shape (with the mixing factor \h), and the angular
 dependence of the peak width (FWHM) was presented by the Cagliotti function
 (Cagliotti, Paoletti and Ricci 1958)
;
_pd_proc_ls_background_function   
;6 Coefficients polynomial function
a~1~=272.52, a~2~=-102.58, a~3~=76.139, a~4~=-29.769,      
a~5~=4.9497, a~6~=-0.28888
;     
loop_
    _diffrn_radiation_type                   
    _diffrn_radiation_wavelength
    _diffrn_radiation_wavelength_wt          
       CuK\a~1~ 1.54056 0.671
       CuK\a~2~ 1.54439 0.329

_diffrn_ambient_temperature     295                    
_diffrn_source              'sealed X-ray tube'        
_diffrn_source_target            Cu                                     
_diffrn_source_type              'Cu K\a'
_diffrn_measurement_device_type  'Philips pw3020'
_diffrn_source_current           40.0
_diffrn_source_voltage           40.0
_diffrn_detector                 'pw1711/90'               
_diffrn_detector_type            'Proportional'        
_pd_meas_scan_method              step        
                                              
_diffrn_radiation_monochromator   Graphite_pw1752/00                

_pd_meas_number_of_points       4651                                     
_pd_meas_2theta_range_min         7                   
_pd_meas_2theta_range_max        100                   
_pd_meas_2theta_range_inc          0.02

_pd_proc_2theta_range_min         7             
_pd_proc_2theta_range_max        100             
_pd_proc_2theta_range_inc          0.02
_pd_proc_info_excluded_regions    'no'             
_pd_proc_info_data_reduction      'no'

#---- raw data loop -----
loop_ _pd_meas_2theta_scan 
      _pd_meas_intensity_total
  7.000 404
  7.020 458
  7.040 428
  7.060 458
  7.080 441
  7.100 404
  7.120 441
  7.140 437
  7.160 376
  7.180 433
  7.200 424
  7.220 420
  7.240 433
  7.260 437
  7.280 424
  7.300 400
  7.320 416
  7.340 388
  7.360 372
  7.380 388
  7.400 380
  7.420 400
  7.440 428
  7.460 400
  7.480 400
  7.500 369
  7.520 408
  7.540 412
  7.560 388
  7.580 392
  7.600 372
  7.620 365
  7.640 380
  7.660 400
  7.680 404
  7.700 412
  7.720 412
  7.740 369
  7.760 384
  7.780 369
  7.800 380
  7.820 428
  7.840 412
  7.860 353
  7.880 392
  7.900 396
  7.920 384
  7.940 376
  7.960 372
  7.980 372
  8.000 400
  8.020 380
  8.040 388
  8.060 388
  8.080 380
  8.100 365
  8.120 365
  8.140 396
  8.160 357
  8.180 369
  8.200 392
  8.220 400
  8.240 369
  8.260 365
  8.280 376
  8.300 400
  8.320 372
  8.340 404
  8.360 388
  8.380 420
  8.400 441
  8.420 420
  8.440 416
  8.460 433
  8.480 428
  8.500 404
  8.520 412
  8.540 441
  8.560 441
  8.580 433
  8.600 462
  8.620 454
  8.640 433
  8.660 445
  8.680 493
  8.700 497
  8.720 524
  8.740 552
  8.760 557
  8.780 590
  8.800 610
  8.820 620
  8.840 640
  8.860 718
  8.880 762
  8.900 870
  8.920 900
  8.940 918
  8.960 986
  8.980 1122
  9.000 1163
  9.020 1218
  9.040 1325
  9.060 1459
  9.080 1673
  9.100 1731
  9.120 1849
  9.140 2061
  9.160 2333
  9.180 2570
  9.200 3036
  9.220 3588
  9.240 4096
  9.260 4706
  9.280 5388
  9.300 6131
  9.320 7006
  9.340 7974
  9.360 8226
  9.380 7903
  9.400 7039
  9.420 5520
  9.440 3807
  9.460 2343
  9.480 1482
  9.500 1069
  9.520 876
  9.540 734
  9.560 620
  9.580 566
  9.600 506
  9.620 471
  9.640 458
  9.660 420
  9.680 454
  9.700 424
  9.720 400
  9.740 357
  9.760 350
  9.780 380
  9.800 365
  9.820 353
  9.840 369
  9.860 357
  9.880 342
  9.900 346
  9.920 310
  9.940 324
  9.960 342
  9.980 342
 10.000 339
 10.020 346
 10.040 328
 10.060 346
 10.080 331
 10.100 369
 10.120 320
 10.140 365
 10.160 346
 10.180 299
 10.200 365
 10.220 365
 10.240 328
 10.260 357
 10.280 317
 10.300 328
 10.320 320
 10.340 303
 10.360 306
 10.380 346
 10.400 328
 10.420 310
 10.440 313
 10.460 313
 10.480 328
 10.500 331
 10.520 306
 10.540 335
 10.560 339
 10.580 320
 10.600 296
 10.620 331
 10.640 306
 10.660 335
 10.680 328
 10.700 279
 10.720 296
 10.740 328
 10.760 328
 10.780 335
 10.800 313
 10.820 317
 10.840 313
 10.860 276
 10.880 282
 10.900 317
 10.920 310
 10.940 313
 10.960 282
 10.980 289
 11.000 313
 11.020 256
 11.040 306
 11.060 296
 11.080 292
 11.100 306
 11.120 306
 11.140 276
 11.160 276
 11.180 292
 11.200 299
 11.220 282
 11.240 259
 11.260 303
 11.280 303
 11.300 296
 11.320 289
 11.340 286
 11.360 317
 11.380 296
 11.400 299
 11.420 299
 11.440 269
 11.460 296
 11.480 262
 11.500 296
 11.520 292
 11.540 272
 11.560 282
 11.580 276
 11.600 256
 11.620 276
 11.640 306
 11.660 262
 11.680 266
 11.700 279
 11.720 292
 11.740 282
 11.760 292
 11.780 292
 11.800 303
 11.820 282
 11.840 282
 11.860 279
 11.880 320
 11.900 299
 11.920 240
 11.940 276
 11.960 256
 11.980 279
 12.000 286
 12.020 282
 12.040 299
 12.060 282
 12.080 262
 12.100 262
 12.120 279
 12.140 269
 12.160 272
 12.180 262
 12.200 282
 12.220 289
 12.240 292
 12.260 286
 12.280 276
 12.300 262
 12.320 246
 12.340 266
 12.360 253
 12.380 296
 12.400 286
 12.420 286
 12.440 253
 12.460 292
 12.480 282
 12.500 266
 12.520 253
 12.540 282
 12.560 303
 12.580 266
 12.600 299
 12.620 282
 12.640 276
 12.660 253
 12.680 286
 12.700 299
 12.720 289
 12.740 296
 12.760 324
 12.780 296
 12.800 313
 12.820 320
 12.840 292
 12.860 328
 12.880 339
 12.900 361
 12.920 396
 12.940 384
 12.960 458
 12.980 424
 13.000 506
 13.020 506
 13.040 506
 13.060 548
 13.080 610
 13.100 697
 13.120 841
 13.140 894
 13.160 1024
 13.180 1183
 13.200 1459
 13.220 1632
 13.240 2025
 13.260 2181
 13.280 2237
 13.300 2352
 13.320 2088
 13.340 1632
 13.360 1267
 13.380 906
 13.400 640
 13.420 502
 13.440 416
 13.460 384
 13.480 365
 13.500 350
 13.520 292
 13.540 313
 13.560 286
 13.580 296
 13.600 289
 13.620 269
 13.640 266
 13.660 286
 13.680 259
 13.700 250
 13.720 272
 13.740 266
 13.760 250
 13.780 253
 13.800 266
 13.820 306
 13.840 262
 13.860 262
 13.880 262
 13.900 276
 13.920 269
 13.940 243
 13.960 262
 13.980 266
 14.000 231
 14.020 231
 14.040 246
 14.060 299
 14.080 246
 14.100 250
 14.120 253
 14.140 240
 14.160 266
 14.180 253
 14.200 231
 14.220 225
 14.240 250
 14.260 253
 14.280 266
 14.300 259
 14.320 256
 14.340 240
 14.360 250
 14.380 269
 14.400 231
 14.420 237
 14.440 250
 14.460 250
 14.480 225
 14.500 225
 14.520 256
 14.540 231
 14.560 243
 14.580 228
 14.600 246
 14.620 243
 14.640 253
 14.660 240
 14.680 266
 14.700 250
 14.720 266
 14.740 272
 14.760 250
 14.780 246
 14.800 213
 14.820 237
 14.840 246
 14.860 228
 14.880 240
 14.900 219
 14.920 262
 14.940 213
 14.960 222
 14.980 276
 15.000 240
 15.020 253
 15.040 240
 15.060 250
 15.080 234
 15.100 246
 15.120 243
 15.140 243
 15.160 282
 15.180 246
 15.200 269
 15.220 256
 15.240 259
 15.260 240
 15.280 246
 15.300 256
 15.320 256
 15.340 213
 15.360 240
 15.380 216
 15.400 240
 15.420 253
 15.440 259
 15.460 250
 15.480 234
 15.500 240
 15.520 272
 15.540 237
 15.560 262
 15.580 272
 15.600 237
 15.620 246
 15.640 234
 15.660 237
 15.680 240
 15.700 259
 15.720 231
 15.740 234
 15.760 228
 15.780 259
 15.800 253
 15.820 253
 15.840 225
 15.860 222
 15.880 228
 15.900 237
 15.920 210
 15.940 222
 15.960 269
 15.980 266
 16.000 213
 16.020 250
 16.040 246
 16.060 210
 16.080 240
 16.100 243
 16.120 262
 16.140 253
 16.160 243
 16.180 250
 16.200 296
 16.220 276
 16.240 259
 16.260 296
 16.280 272
 16.300 276
 16.320 328
 16.340 276
 16.360 289
 16.380 262
 16.400 272
 16.420 286
 16.440 269
 16.460 240
 16.480 286
 16.500 253
 16.520 262
 16.540 286
 16.560 269
 16.580 272
 16.600 286
 16.620 256
 16.640 276
 16.660 289
 16.680 289
 16.700 303
 16.720 328
 16.740 276
 16.760 342
 16.780 310
 16.800 335
 16.820 342
 16.840 346
 16.860 320
 16.880 369
 16.900 346
 16.920 324
 16.940 339
 16.960 335
 16.980 310
 17.000 313
 17.020 324
 17.040 310
 17.060 269
 17.080 306
 17.100 262
 17.120 286
 17.140 272
 17.160 272
 17.180 266
 17.200 279
 17.220 272
 17.240 282
 17.260 262
 17.280 286
 17.300 246
 17.320 243
 17.340 276
 17.360 262
 17.380 279
 17.400 279
 17.420 276
 17.440 276
 17.460 279
 17.480 292
 17.500 276
 17.520 269
 17.540 331
 17.560 286
 17.580 289
 17.600 272
 17.620 276
 17.640 279
 17.660 296
 17.680 289
 17.700 272
 17.720 299
 17.740 303
 17.760 292
 17.780 296
 17.800 317
 17.820 313
 17.840 320
 17.860 313
 17.880 331
 17.900 306
 17.920 335
 17.940 317
 17.960 339
 17.980 350
 18.000 339
 18.020 376
 18.040 380
 18.060 372
 18.080 372
 18.100 396
 18.120 392
 18.140 361
 18.160 380
 18.180 376
 18.200 420
 18.220 369
 18.240 404
 18.260 428
 18.280 400
 18.300 412
 18.320 420
 18.340 408
 18.360 408
 18.380 408
 18.400 408
 18.420 408
 18.440 369
 18.460 365
 18.480 384
 18.500 376
 18.520 412
 18.540 372
 18.560 372
 18.580 388
 18.600 392
 18.620 369
 18.640 350
 18.660 310
 18.680 324
 18.700 339
 18.720 320
 18.740 328
 18.760 313
 18.780 331
 18.800 320
 18.820 320
 18.840 299
 18.860 296
 18.880 286
 18.900 292
 18.920 313
 18.940 313
 18.960 310
 18.980 292
 19.000 253
 19.020 292
 19.040 286
 19.060 320
 19.080 320
 19.100 306
 19.120 299
 19.140 292
 19.160 279
 19.180 289
 19.200 246
 19.220 250
 19.240 276
 19.260 272
 19.280 272
 19.300 262
 19.320 276
 19.340 250
 19.360 246
 19.380 253
 19.400 246
 19.420 269
 19.440 269
 19.460 282
 19.480 286
 19.500 266
 19.520 272
 19.540 246
 19.560 282
 19.580 276
 19.600 299
 19.620 256
 19.640 276
 19.660 272
 19.680 253
 19.700 262
 19.720 246
 19.740 279
 19.760 276
 19.780 279
 19.800 266
 19.820 253
 19.840 246
 19.860 289
 19.880 262
 19.900 246
 19.920 266
 19.940 246
 19.960 269
 19.980 240
 20.000 279
 20.020 246
 20.040 262
 20.060 276
 20.080 262
 20.100 269
 20.120 276
 20.140 237
 20.160 259
 20.180 234
 20.200 282
 20.220 243
 20.240 276
 20.260 266
 20.280 243
 20.300 272
 20.320 269
 20.340 269
 20.360 269
 20.380 279
 20.400 276
 20.420 276
 20.440 269
 20.460 279
 20.480 299
 20.500 331
 20.520 299
 20.540 350
 20.560 331
 20.580 353
 20.600 369
 20.620 396
 20.640 467
 20.660 480
 20.680 497
 20.700 506
 20.720 576
 20.740 524
 20.760 511
 20.780 467
 20.800 458
 20.820 449
 20.840 445
 20.860 424
 20.880 433
 20.900 458
 20.920 488
 20.940 590
 20.960 640
 20.980 713
 21.000 767
 21.020 930
 21.040 1082
 21.060 1318
 21.080 1362
 21.100 1490
 21.120 1560
 21.140 1436
 21.160 1282
 21.180 1069
 21.200 876
 21.220 697
 21.240 520
 21.260 467
 21.280 392
 21.300 361
 21.320 365
 21.340 317
 21.360 313
 21.380 286
 21.400 320
 21.420 296
 21.440 269
 21.460 262
 21.480 299
 21.500 262
 21.520 303
 21.540 289
 21.560 269
 21.580 272
 21.600 272
 21.620 262
 21.640 243
 21.660 243
 21.680 216
 21.700 219
 21.720 231
 21.740 250
 21.760 231
 21.780 216
 21.800 240
 21.820 210
 21.840 222
 21.860 243
 21.880 222
 21.900 213
 21.920 256
 21.940 231
 21.960 231
 21.980 216
 22.000 216
 22.020 199
 22.040 219
 22.060 234
 22.080 216
 22.100 250
 22.120 219
 22.140 237
 22.160 207
 22.180 193
 22.200 246
 22.220 237
 22.240 231
 22.260 216
 22.280 222
 22.300 250
 22.320 222
 22.340 231
 22.360 204
 22.380 202
 22.400 204
 22.420 202
 22.440 266
 22.460 188
 22.480 231
 22.500 237
 22.520 219
 22.540 240
 22.560 207
 22.580 243
 22.600 193
 22.620 222
 22.640 234
 22.660 228
 22.680 240
 22.700 237
 22.720 246
 22.740 231
 22.760 246
 22.780 234
 22.800 253
 22.820 243
 22.840 279
 22.860 272
 22.880 289
 22.900 296
 22.920 339
 22.940 346
 22.960 328
 22.980 392
 23.000 420
 23.020 493
 23.040 571
 23.060 640
 23.080 729
 23.100 858
 23.120 980
 23.140 999
 23.160 961
 23.180 1011
 23.200 924
 23.220 847
 23.240 666
 23.260 538
 23.280 515
 23.300 392
 23.320 357
 23.340 306
 23.360 317
 23.380 262
 23.400 276
 23.420 269
 23.440 266
 23.460 269
 23.480 246
 23.500 243
 23.520 222
 23.540 202
 23.560 216
 23.580 213
 23.600 250
 23.620 259
 23.640 202
 23.660 199
 23.680 231
 23.700 253
 23.720 228
 23.740 228
 23.760 219
 23.780 216
 23.800 256
 23.820 204
 23.840 202
 23.860 243
 23.880 202
 23.900 231
 23.920 250
 23.940 210
 23.960 216
 23.980 219
 24.000 213
 24.020 231
 24.040 231
 24.060 204
 24.080 219
 24.100 219
 24.120 219
 24.140 222
 24.160 213
 24.180 193
 24.200 213
 24.220 219
 24.240 228
 24.260 234
 24.280 225
 24.300 234
 24.320 219
 24.340 219
 24.360 225
 24.380 216
 24.400 219
 24.420 225
 24.440 222
 24.460 231
 24.480 219
 24.500 250
 24.520 222
 24.540 216
 24.560 207
 24.580 225
 24.600 199
 24.620 216
 24.640 222
 24.660 234
 24.680 222
 24.700 207
 24.720 225
 24.740 213
 24.760 228
 24.780 231
 24.800 234
 24.820 219
 24.840 237
 24.860 231
 24.880 222
 24.900 210
 24.920 231
 24.940 210
 24.960 237
 24.980 246
 25.000 204
 25.020 210
 25.040 207
 25.060 225
 25.080 216
 25.100 216
 25.120 207
 25.140 243
 25.160 228
 25.180 216
 25.200 225
 25.220 210
 25.240 237
 25.260 225
 25.280 207
 25.300 193
 25.320 234
 25.340 225
 25.360 204
 25.380 246
 25.400 213
 25.420 202
 25.440 225
 25.460 193
 25.480 199
 25.500 210
 25.520 216
 25.540 222
 25.560 219
 25.580 234
 25.600 234
 25.620 216
 25.640 216
 25.660 225
 25.680 222
 25.700 207
 25.720 234
 25.740 246
 25.760 204
 25.780 243
 25.800 202
 25.820 202
 25.840 222
 25.860 237
 25.880 213
 25.900 180
 25.920 228
 25.940 216
 25.960 199
 25.980 207
 26.000 237
 26.020 237
 26.040 253
 26.060 216
 26.080 228
 26.100 237
 26.120 213
 26.140 240
 26.160 228
 26.180 243
 26.200 243
 26.220 240
 26.240 199
 26.260 228
 26.280 228
 26.300 231
 26.320 225
 26.340 243
 26.360 240
 26.380 243
 26.400 207
 26.420 246
 26.440 262
 26.460 262
 26.480 234
 26.500 276
 26.520 269
 26.540 286
 26.560 335
 26.580 313
 26.600 339
 26.620 408
 26.640 404
 26.660 524
 26.680 581
 26.700 686
 26.720 751
 26.740 894
 26.760 1011
 26.780 1170
 26.800 1156
 26.820 1170
 26.840 1082
 26.860 986
 26.880 894
 26.900 778
 26.920 676
 26.940 566
 26.960 534
 26.980 449
 27.000 369
 27.020 376
 27.040 335
 27.060 313
 27.080 306
 27.100 292
 27.120 266
 27.140 276
 27.160 256
 27.180 276
 27.200 231
 27.220 237
 27.240 190
 27.260 253
 27.280 228
 27.300 231
 27.320 231
 27.340 213
 27.360 213
 27.380 228
 27.400 202
 27.420 213
 27.440 240
 27.460 219
 27.480 222
 27.500 225
 27.520 216
 27.540 222
 27.560 188
 27.580 213
 27.600 207
 27.620 222
 27.640 225
 27.660 225
 27.680 196
 27.700 204
 27.720 228
 27.740 210
 27.760 219
 27.780 222
 27.800 240
 27.820 228
 27.840 190
 27.860 240
 27.880 210
 27.900 216
 27.920 219
 27.940 246
 27.960 256
 27.980 250
 28.000 256
 28.020 219
 28.040 225
 28.060 231
 28.080 234
 28.100 246
 28.120 196
 28.140 231
 28.160 228
 28.180 234
 28.200 234
 28.220 219
 28.240 216
 28.260 216
 28.280 204
 28.300 219
 28.320 219
 28.340 250
 28.360 240
 28.380 262
 28.400 225
 28.420 259
 28.440 282
 28.460 256
 28.480 256
 28.500 266
 28.520 292
 28.540 256
 28.560 259
 28.580 231
 28.600 250
 28.620 222
 28.640 243
 28.660 269
 28.680 219
 28.700 219
 28.720 246
 28.740 225
 28.760 228
 28.780 225
 28.800 193
 28.820 204
 28.840 213
 28.860 204
 28.880 190
 28.900 228
 28.920 204
 28.940 222
 28.960 234
 28.980 240
 29.000 222
 29.020 243
 29.040 237
 29.060 266
 29.080 259
 29.100 259
 29.120 276
 29.140 279
 29.160 250
 29.180 269
 29.200 256
 29.220 256
 29.240 286
 29.260 289
 29.280 279
 29.300 296
 29.320 289
 29.340 296
 29.360 335
 29.380 339
 29.400 328
 29.420 369
 29.440 342
 29.460 299
 29.480 286
 29.500 299
 29.520 303
 29.540 299
 29.560 253
 29.580 276
 29.600 234
 29.620 286
 29.640 269
 29.660 272
 29.680 259
 29.700 292
 29.720 266
 29.740 282
 29.760 276
 29.780 303
 29.800 306
 29.820 317
 29.840 346
 29.860 365
 29.880 428
 29.900 480
 29.920 520
 29.940 610
 29.960 702
 29.980 778
 30.000 790
 30.020 824
 30.040 853
 30.060 864
 30.080 853
 30.100 812
 30.120 729
 30.140 655
 30.160 548
 30.180 538
 30.200 416
 30.220 384
 30.240 388
 30.260 299
 30.280 272
 30.300 286
 30.320 253
 30.340 276
 30.360 279
 30.380 276
 30.400 272
 30.420 286
 30.440 279
 30.460 246
 30.480 259
 30.500 296
 30.520 279
 30.540 213
 30.560 246
 30.580 216
 30.600 237
 30.620 253
 30.640 243
 30.660 207
 30.680 216
 30.700 250
 30.720 199
 30.740 231
 30.760 210
 30.780 240
 30.800 237
 30.820 289
 30.840 231
 30.860 225
 30.880 228
 30.900 262
 30.920 253
 30.940 259
 30.960 246
 30.980 259
 31.000 246
 31.020 269
 31.040 237
 31.060 231
 31.080 279
 31.100 266
 31.120 269
 31.140 306
 31.160 289
 31.180 335
 31.200 313
 31.220 269
 31.240 289
 31.260 243
 31.280 282
 31.300 228
 31.320 219
 31.340 225
 31.360 243
 31.380 228
 31.400 256
 31.420 262
 31.440 228
 31.460 228
 31.480 231
 31.500 266
 31.520 262
 31.540 272
 31.560 237
 31.580 259
 31.600 259
 31.620 262
 31.640 289
 31.660 282
 31.680 289
 31.700 276
 31.720 328
 31.740 313
 31.760 320
 31.780 328
 31.800 361
 31.820 361
 31.840 328
 31.860 317
 31.880 328
 31.900 335
 31.920 339
 31.940 350
 31.960 392
 31.980 408
 32.000 424
 32.020 475
 32.040 493
 32.060 605
 32.080 671
 32.100 790
 32.120 936
 32.140 1163
 32.160 1475
 32.180 1789
 32.200 2362
 32.220 3047
 32.240 3906
 32.260 4638
 32.280 4998
 32.300 4409
 32.320 3295
 32.340 2820
 32.360 2642
 32.380 2025
 32.400 1332
 32.420 829
 32.440 718
 32.460 566
 32.480 480
 32.500 441
 32.520 400
 32.540 372
 32.560 384
 32.580 365
 32.600 376
 32.620 361
 32.640 357
 32.660 339
 32.680 372
 32.700 400
 32.720 420
 32.740 462
 32.760 458
 32.780 524
 32.800 576
 32.820 729
 32.840 835
 32.860 942
 32.880 1116
 32.900 1282
 32.920 1521
 32.940 1592
 32.960 1806
 32.980 1918
 33.000 1875
 33.020 1936
 33.040 1806
 33.060 1815
 33.080 1608
 33.100 1505
 33.120 1267
 33.140 1136
 33.160 894
 33.180 708
 33.200 630
 33.220 571
 33.240 475
 33.260 449
 33.280 396
 33.300 396
 33.320 388
 33.340 369
 33.360 380
 33.380 331
 33.400 353
 33.420 289
 33.440 317
 33.460 299
 33.480 392
 33.500 324
 33.520 310
 33.540 328
 33.560 324
 33.580 346
 33.600 350
 33.620 317
 33.640 372
 33.660 380
 33.680 380
 33.700 331
 33.720 346
 33.740 369
 33.760 404
 33.780 388
 33.800 392
 33.820 420
 33.840 433
 33.860 396
 33.880 433
 33.900 412
 33.920 480
 33.940 449
 33.960 520
 33.980 497
 34.000 557
 34.020 552
 34.040 566
 34.060 625
 34.080 724
 34.100 740
 34.120 795
 34.140 936
 34.160 967
 34.180 1116
 34.200 1444
 34.220 1640
 34.240 2116
 34.260 2440
 34.280 3014
 34.300 3434
 34.320 3931
 34.340 4356
 34.360 4844
 34.380 4998
 34.400 5314
 34.420 5314
 34.440 5535
 34.460 5610
 34.480 5944
 34.500 6225
 34.520 6989
 34.540 8046
 34.560 10486
 34.580 13759
 34.600 16154
 34.620 16256
 34.640 14042
 34.660 11968
 34.680 10404
 34.700 9409
 34.720 7293
 34.740 5112
 34.760 3411
 34.780 2228
 34.800 1640
 34.820 1340
 34.840 1116
 34.860 876
 34.880 812
 34.900 740
 34.920 635
 34.940 600
 34.960 529
 34.980 566
 35.000 511
 35.020 480
 35.040 454
 35.060 475
 35.080 449
 35.100 480
 35.120 441
 35.140 458
 35.160 441
 35.180 467
 35.200 433
 35.220 428
 35.240 428
 35.260 428
 35.280 433
 35.300 441
 35.320 502
 35.340 488
 35.360 511
 35.380 538
 35.400 620
 35.420 620
 35.440 625
 35.460 660
 35.480 767
 35.500 876
 35.520 1056
 35.540 1274
 35.560 1505
 35.580 1832
 35.600 2266
 35.620 2570
 35.640 3238
 35.660 3648
 35.680 4134
 35.700 4199
 35.720 4529
 35.740 4529
 35.760 4502
 35.780 4186
 35.800 3684
 35.820 3399
 35.840 2938
 35.860 2450
 35.880 2181
 35.900 1772
 35.920 1482
 35.940 1274
 35.960 1149
 35.980 894
 36.000 882
 36.020 767
 36.040 681
 36.060 660
 36.080 557
 36.100 538
 36.120 543
 36.140 595
 36.160 529
 36.180 524
 36.200 538
 36.220 562
 36.240 581
 36.260 590
 36.280 586
 36.300 681
 36.320 724
 36.340 767
 36.360 829
 36.380 894
 36.400 936
 36.420 1024
 36.440 1211
 36.460 1274
 36.480 1384
 36.500 1616
 36.520 1936
 36.540 2352
 36.560 2862
 36.580 3341
 36.600 4212
 36.620 5565
 36.640 7225
 36.660 9332
 36.680 12792
 36.700 16487
 36.720 19321
 36.740 20192
 36.760 18469
 36.780 15800
 36.800 13900
 36.820 12410
 36.840 10795
 36.860 8354
 36.880 5991
 36.900 4199
 36.920 3091
 36.940 2401
 36.960 1945
 36.980 1576
 37.000 1399
 37.020 1197
 37.040 967
 37.060 870
 37.080 818
 37.100 745
 37.120 660
 37.140 610
 37.160 590
 37.180 576
 37.200 557
 37.220 538
 37.240 454
 37.260 502
 37.280 462
 37.300 441
 37.320 420
 37.340 420
 37.360 369
 37.380 428
 37.400 420
 37.420 441
 37.440 400
 37.460 392
 37.480 412
 37.500 416
 37.520 404
 37.540 454
 37.560 424
 37.580 416
 37.600 384
 37.620 433
 37.640 437
 37.660 441
 37.680 424
 37.700 441
 37.720 471
 37.740 420
 37.760 484
 37.780 445
 37.800 538
 37.820 493
 37.840 454
 37.860 488
 37.880 445
 37.900 520
 37.920 520
 37.940 506
 37.960 566
 37.980 552
 38.000 615
 38.020 610
 38.040 676
 38.060 778
 38.080 870
 38.100 980
 38.120 1149
 38.140 1347
 38.160 1616
 38.180 1927
 38.200 2125
 38.220 2440
 38.240 2777
 38.260 2884
 38.280 3003
 38.300 3003
 38.320 2884
 38.340 2830
 38.360 2621
 38.380 2314
 38.400 2181
 38.420 2016
 38.440 1747
 38.460 1537
 38.480 1340
 38.500 1156
 38.520 986
 38.540 924
 38.560 807
 38.580 655
 38.600 620
 38.620 566
 38.640 552
 38.660 454
 38.680 467
 38.700 454
 38.720 384
 38.740 328
 38.760 346
 38.780 339
 38.800 369
 38.820 331
 38.840 357
 38.860 328
 38.880 331
 38.900 310
 38.920 350
 38.940 339
 38.960 324
 38.980 313
 39.000 346
 39.020 339
 39.040 365
 39.060 350
 39.080 380
 39.100 361
 39.120 424
 39.140 365
 39.160 433
 39.180 502
 39.200 529
 39.220 548
 39.240 566
 39.260 640
 39.280 724
 39.300 876
 39.320 980
 39.340 1354
 39.360 1592
 39.380 1849
 39.400 2172
 39.420 2530
 39.440 2938
 39.460 3215
 39.480 3341
 39.500 3648
 39.520 3684
 39.540 3684
 39.560 3612
 39.580 3364
 39.600 3181
 39.620 2938
 39.640 2550
 39.660 2172
 39.680 1927
 39.700 1648
 39.720 1347
 39.740 1136
 39.760 1024
 39.780 824
 39.800 692
 39.820 660
 39.840 620
 39.860 520
 39.880 497
 39.900 488
 39.920 471
 39.940 412
 39.960 376
 39.980 420
 40.000 428
 40.020 412
 40.040 412
 40.060 420
 40.080 416
 40.100 437
 40.120 462
 40.140 484
 40.160 548
 40.180 552
 40.200 590
 40.220 605
 40.240 676
 40.260 734
 40.280 745
 40.300 756
 40.320 708
 40.340 790
 40.360 724
 40.380 713
 40.400 697
 40.420 718
 40.440 702
 40.460 676
 40.480 635
 40.500 697
 40.520 718
 40.540 676
 40.560 745
 40.580 818
 40.600 906
 40.620 1056
 40.640 1109
 40.660 1211
 40.680 1239
 40.700 1318
 40.720 1246
 40.740 1267
 40.760 1204
 40.780 1156
 40.800 1076
 40.820 973
 40.840 918
 40.860 784
 40.880 745
 40.900 655
 40.920 600
 40.940 515
 40.960 480
 40.980 454
 41.000 441
 41.020 388
 41.040 361
 41.060 357
 41.080 339
 41.100 317
 41.120 303
 41.140 313
 41.160 317
 41.180 328
 41.200 331
 41.220 310
 41.240 276
 41.260 306
 41.280 276
 41.300 292
 41.320 256
 41.340 282
 41.360 279
 41.380 269
 41.400 282
 41.420 276
 41.440 276
 41.460 306
 41.480 296
 41.500 266
 41.520 276
 41.540 296
 41.560 272
 41.580 286
 41.600 289
 41.620 296
 41.640 289
 41.660 269
 41.680 292
 41.700 299
 41.720 328
 41.740 289
 41.760 324
 41.780 317
 41.800 328
 41.820 350
 41.840 339
 41.860 331
 41.880 339
 41.900 380
 41.920 353
 41.940 384
 41.960 392
 41.980 372
 42.000 392
 42.020 441
 42.040 388
 42.060 428
 42.080 462
 42.100 529
 42.120 520
 42.140 520
 42.160 571
 42.180 552
 42.200 548
 42.220 552
 42.240 506
 42.260 506
 42.280 471
 42.300 433
 42.320 445
 42.340 408
 42.360 428
 42.380 396
 42.400 331
 42.420 384
 42.440 346
 42.460 357
 42.480 365
 42.500 296
 42.520 365
 42.540 339
 42.560 335
 42.580 361
 42.600 353
 42.620 350
 42.640 342
 42.660 388
 42.680 369
 42.700 384
 42.720 376
 42.740 420
 42.760 515
 42.780 506
 42.800 595
 42.820 708
 42.840 818
 42.860 961
 42.880 1142
 42.900 1332
 42.920 1513
 42.940 1706
 42.960 1866
 42.980 2007
 43.000 2043
 43.020 2144
 43.040 2125
 43.060 2153
 43.080 2016
 43.100 1918
 43.120 1665
 43.140 1568
 43.160 1444
 43.180 1296
 43.200 1082
 43.220 1018
 43.240 870
 43.260 745
 43.280 645
 43.300 538
 43.320 515
 43.340 462
 43.360 412
 43.380 396
 43.400 396
 43.420 365
 43.440 342
 43.460 310
 43.480 313
 43.500 286
 43.520 335
 43.540 292
 43.560 292
 43.580 272
 43.600 286
 43.620 292
 43.640 286
 43.660 262
 43.680 286
 43.700 243
 43.720 292
 43.740 289
 43.760 269
 43.780 276
 43.800 292
 43.820 342
 43.840 320
 43.860 339
 43.880 392
 43.900 433
 43.920 458
 43.940 511
 43.960 610
 43.980 713
 44.000 790
 44.020 853
 44.040 1011
 44.060 1063
 44.080 1183
 44.100 1260
 44.120 1325
 44.140 1369
 44.160 1354
 44.180 1340
 44.200 1282
 44.220 1239
 44.240 1116
 44.260 1037
 44.280 918
 44.300 829
 44.320 702
 44.340 660
 44.360 590
 44.380 515
 44.400 428
 44.420 388
 44.440 380
 44.460 369
 44.480 335
 44.500 286
 44.520 289
 44.540 299
 44.560 286
 44.580 286
 44.600 266
 44.620 276
 44.640 253
 44.660 240
 44.680 246
 44.700 231
 44.720 243
 44.740 225
 44.760 246
 44.780 225
 44.800 207
 44.820 225
 44.840 216
 44.860 246
 44.880 234
 44.900 243
 44.920 240
 44.940 240
 44.960 262
 44.980 259
 45.000 256
 45.020 276
 45.040 296
 45.060 335
 45.080 339
 45.100 424
 45.120 412
 45.140 441
 45.160 480
 45.180 497
 45.200 534
 45.220 524
 45.240 571
 45.260 600
 45.280 566
 45.300 538
 45.320 515
 45.340 488
 45.360 458
 45.380 445
 45.400 392
 45.420 376
 45.440 357
 45.460 313
 45.480 324
 45.500 253
 45.520 269
 45.540 228
 45.560 237
 45.580 240
 45.600 240
 45.620 243
 45.640 246
 45.660 237
 45.680 240
 45.700 216
 45.720 237
 45.740 222
 45.760 216
 45.780 240
 45.800 199
 45.820 219
 45.840 231
 45.860 228
 45.880 193
 45.900 231
 45.920 202
 45.940 210
 45.960 199
 45.980 196
 46.000 231
 46.020 188
 46.040 216
 46.060 210
 46.080 204
 46.100 193
 46.120 207
 46.140 207
 46.160 196
 46.180 202
 46.200 207
 46.220 196
 46.240 250
 46.260 213
 46.280 199
 46.300 196
 46.320 190
 46.340 210
 46.360 213
 46.380 182
 46.400 210
 46.420 213
 46.440 185
 46.460 213
 46.480 213
 46.500 185
 46.520 202
 46.540 193
 46.560 228
 46.580 193
 46.600 182
 46.620 219
 46.640 196
 46.660 207
 46.680 202
 46.700 185
 46.720 196
 46.740 196
 46.760 222
 46.780 222
 46.800 188
 46.820 188
 46.840 216
 46.860 210
 46.880 199
 46.900 188
 46.920 231
 46.940 213
 46.960 222
 46.980 185
 47.000 231
 47.020 237
 47.040 237
 47.060 234
 47.080 228
 47.100 216
 47.120 246
 47.140 240
 47.160 266
 47.180 237
 47.200 246
 47.220 266
 47.240 276
 47.260 269
 47.280 289
 47.300 299
 47.320 342
 47.340 306
 47.360 328
 47.380 331
 47.400 310
 47.420 324
 47.440 328
 47.460 317
 47.480 310
 47.500 289
 47.520 320
 47.540 310
 47.560 306
 47.580 303
 47.600 286
 47.620 324
 47.640 289
 47.660 292
 47.680 357
 47.700 320
 47.720 408
 47.740 380
 47.760 428
 47.780 520
 47.800 475
 47.820 581
 47.840 650
 47.860 790
 47.880 824
 47.900 999
 47.920 1163
 47.940 1289
 47.960 1640
 47.980 1954
 48.000 2500
 48.020 2938
 48.040 3260
 48.060 3364
 48.080 2981
 48.100 2450
 48.120 2266
 48.140 2162
 48.160 2153
 48.180 2107
 48.200 1764
 48.220 1529
 48.240 1282
 48.260 1116
 48.280 1037
 48.300 942
 48.320 999
 48.340 967
 48.360 992
 48.380 1050
 48.400 1050
 48.420 992
 48.440 992
 48.460 955
 48.480 894
 48.500 912
 48.520 778
 48.540 795
 48.560 724
 48.580 610
 48.600 600
 48.620 543
 48.640 502
 48.660 445
 48.680 437
 48.700 380
 48.720 376
 48.740 331
 48.760 279
 48.780 313
 48.800 286
 48.820 262
 48.840 272
 48.860 269
 48.880 250
 48.900 237
 48.920 243
 48.940 225
 48.960 269
 48.980 231
 49.000 266
 49.020 259
 49.040 266
 49.060 276
 49.080 292
 49.100 289
 49.120 266
 49.140 310
 49.160 269
 49.180 272
 49.200 310
 49.220 339
 49.240 313
 49.260 282
 49.280 346
 49.300 372
 49.320 369
 49.340 392
 49.360 396
 49.380 384
 49.400 408
 49.420 404
 49.440 412
 49.460 404
 49.480 428
 49.500 412
 49.520 400
 49.540 428
 49.560 357
 49.580 361
 49.600 372
 49.620 279
 49.640 339
 49.660 289
 49.680 269
 49.700 259
 49.720 243
 49.740 256
 49.760 246
 49.780 228
 49.800 213
 49.820 207
 49.840 222
 49.860 207
 49.880 207
 49.900 193
 49.920 213
 49.940 199
 49.960 204
 49.980 199
 50.000 202
 50.020 193
 50.040 216
 50.060 213
 50.080 204
 50.100 190
 50.120 188
 50.140 234
 50.160 202
 50.180 243
 50.200 213
 50.220 216
 50.240 199
 50.260 240
 50.280 225
 50.300 243
 50.320 246
 50.340 250
 50.360 279
 50.380 292
 50.400 262
 50.420 286
 50.440 289
 50.460 313
 50.480 331
 50.500 279
 50.520 272
 50.540 292
 50.560 262
 50.580 266
 50.600 246
 50.620 259
 50.640 234
 50.660 237
 50.680 237
 50.700 219
 50.720 202
 50.740 210
 50.760 234
 50.780 210
 50.800 207
 50.820 219
 50.840 228
 50.860 237
 50.880 228
 50.900 204
 50.920 210
 50.940 193
 50.960 185
 50.980 199
 51.000 202
 51.020 210
 51.040 196
 51.060 190
 51.080 213
 51.100 204
 51.120 185
 51.140 202
 51.160 196
 51.180 213
 51.200 222
 51.220 185
 51.240 222
 51.260 204
 51.280 180
 51.300 210
 51.320 177
 51.340 213
 51.360 188
 51.380 177
 51.400 199
 51.420 199
 51.440 188
 51.460 169
 51.480 213
 51.500 164
 51.520 188
 51.540 219
 51.560 196
 51.580 202
 51.600 180
 51.620 202
 51.640 210
 51.660 196
 51.680 188
 51.700 151
 51.720 174
 51.740 196
 51.760 188
 51.780 188
 51.800 193
 51.820 172
 51.840 180
 51.860 174
 51.880 188
 51.900 207
 51.920 177
 51.940 207
 51.960 202
 51.980 202
 52.000 207
 52.020 216
 52.040 185
 52.060 222
 52.080 219
 52.100 202
 52.120 234
 52.140 207
 52.160 213
 52.180 234
 52.200 313
 52.220 282
 52.240 350
 52.260 353
 52.280 388
 52.300 400
 52.320 408
 52.340 471
 52.360 441
 52.380 458
 52.400 493
 52.420 484
 52.440 488
 52.460 480
 52.480 458
 52.500 445
 52.520 420
 52.540 380
 52.560 420
 52.580 380
 52.600 392
 52.620 350
 52.640 320
 52.660 299
 52.680 276
 52.700 266
 52.720 259
 52.740 231
 52.760 222
 52.780 204
 52.800 210
 52.820 213
 52.840 196
 52.860 193
 52.880 193
 52.900 193
 52.920 204
 52.940 210
 52.960 185
 52.980 204
 53.000 185
 53.020 169
 53.040 190
 53.060 159
 53.080 182
 53.100 193
 53.120 161
 53.140 174
 53.160 172
 53.180 193
 53.200 188
 53.220 193
 53.240 193
 53.260 193
 53.280 188
 53.300 182
 53.320 196
 53.340 182
 53.360 188
 53.380 182
 53.400 190
 53.420 174
 53.440 199
 53.460 188
 53.480 177
 53.500 210
 53.520 190
 53.540 210
 53.560 213
 53.580 207
 53.600 199
 53.620 204
 53.640 199
 53.660 216
 53.680 216
 53.700 210
 53.720 199
 53.740 210
 53.760 177
 53.780 213
 53.800 219
 53.820 193
 53.840 210
 53.860 216
 53.880 213
 53.900 225
 53.920 188
 53.940 210
 53.960 202
 53.980 219
 54.000 190
 54.020 188
 54.040 199
 54.060 213
 54.080 174
 54.100 228
 54.120 164
 54.140 180
 54.160 202
 54.180 177
 54.200 164
 54.220 196
 54.240 185
 54.260 219
 54.280 202
 54.300 196
 54.320 172
 54.340 180
 54.360 188
 54.380 185
 54.400 216
 54.420 182
 54.440 188
 54.460 185
 54.480 202
 54.500 185
 54.520 193
 54.540 193
 54.560 169
 54.580 190
 54.600 202
 54.620 174
 54.640 207
 54.660 180
 54.680 174
 54.700 193
 54.720 180
 54.740 185
 54.760 182
 54.780 190
 54.800 177
 54.820 172
 54.840 190
 54.860 204
 54.880 182
 54.900 204
 54.920 188
 54.940 185
 54.960 204
 54.980 174
 55.000 202
 55.020 199
 55.040 219
 55.060 210
 55.080 202
 55.100 213
 55.120 237
 55.140 219
 55.160 234
 55.180 266
 55.200 286
 55.220 259
 55.240 269
 55.260 262
 55.280 237
 55.300 296
 55.320 299
 55.340 306
 55.360 286
 55.380 262
 55.400 240
 55.420 256
 55.440 279
 55.460 256
 55.480 243
 55.500 240
 55.520 269
 55.540 193
 55.560 213
 55.580 231
 55.600 185
 55.620 202
 55.640 228
 55.660 213
 55.680 231
 55.700 202
 55.720 190
 55.740 182
 55.760 174
 55.780 180
 55.800 210
 55.820 210
 55.840 196
 55.860 193
 55.880 204
 55.900 193
 55.920 213
 55.940 210
 55.960 213
 55.980 237
 56.000 237
 56.020 256
 56.040 237
 56.060 289
 56.080 286
 56.100 253
 56.120 286
 56.140 303
 56.160 310
 56.180 306
 56.200 339
 56.220 328
 56.240 357
 56.260 350
 56.280 320
 56.300 331
 56.320 299
 56.340 303
 56.360 296
 56.380 276
 56.400 306
 56.420 279
 56.440 272
 56.460 269
 56.480 286
 56.500 256
 56.520 250
 56.540 234
 56.560 282
 56.580 246
 56.600 219
 56.620 259
 56.640 259
 56.660 228
 56.680 246
 56.700 225
 56.720 246
 56.740 262
 56.760 272
 56.780 246
 56.800 250
 56.820 246
 56.840 269
 56.860 279
 56.880 292
 56.900 306
 56.920 306
 56.940 342
 56.960 346
 56.980 388
 57.000 376
 57.020 408
 57.040 416
 57.060 471
 57.080 502
 57.100 534
 57.120 497
 57.140 552
 57.160 538
 57.180 520
 57.200 590
 57.220 543
 57.240 506
 57.260 538
 57.280 511
 57.300 552
 57.320 566
 57.340 515
 57.360 600
 57.380 590
 57.400 590
 57.420 655
 57.440 767
 57.460 829
 57.480 1030
 57.500 1218
 57.520 1436
 57.540 1714
 57.560 1936
 57.580 2098
 57.600 2153
 57.620 1832
 57.640 1673
 57.660 1421
 57.680 1332
 57.700 1190
 57.720 1274
 57.740 1211
 57.760 1096
 57.780 924
 57.800 724
 57.820 676
 57.840 534
 57.860 441
 57.880 346
 57.900 365
 57.920 331
 57.940 279
 57.960 276
 57.980 313
 58.000 292
 58.020 250
 58.040 262
 58.060 250
 58.080 246
 58.100 231
 58.120 246
 58.140 222
 58.160 225
 58.180 237
 58.200 243
 58.220 216
 58.240 225
 58.260 250
 58.280 256
 58.300 225
 58.320 199
 58.340 250
 58.360 234
 58.380 243
 58.400 250
 58.420 237
 58.440 204
 58.460 231
 58.480 246
 58.500 228
 58.520 222
 58.540 213
 58.560 243
 58.580 231
 58.600 269
 58.620 243
 58.640 219
 58.660 282
 58.680 262
 58.700 266
 58.720 289
 58.740 279
 58.760 317
 58.780 328
 58.800 350
 58.820 350
 58.840 376
 58.860 392
 58.880 424
 58.900 396
 58.920 416
 58.940 408
 58.960 412
 58.980 428
 59.000 412
 59.020 392
 59.040 400
 59.060 380
 59.080 388
 59.100 369
 59.120 384
 59.140 388
 59.160 331
 59.180 313
 59.200 310
 59.220 324
 59.240 262
 59.260 296
 59.280 269
 59.300 253
 59.320 234
 59.340 256
 59.360 210
 59.380 228
 59.400 234
 59.420 243
 59.440 237
 59.460 234
 59.480 213
 59.500 222
 59.520 256
 59.540 204
 59.560 234
 59.580 225
 59.600 225
 59.620 237
 59.640 240
 59.660 237
 59.680 228
 59.700 225
 59.720 188
 59.740 199
 59.760 202
 59.780 213
 59.800 207
 59.820 207
 59.840 199
 59.860 240
 59.880 225
 59.900 256
 59.920 216
 59.940 222
 59.960 225
 59.980 231
 60.000 219
 60.020 228
 60.040 231
 60.060 240
 60.080 246
 60.100 231
 60.120 216
 60.140 213
 60.160 210
 60.180 243
 60.200 216
 60.220 222
 60.240 253
 60.260 231
 60.280 231
 60.300 246
 60.320 253
 60.340 256
 60.360 299
 60.380 272
 60.400 289
 60.420 313
 60.440 365
 60.460 372
 60.480 404
 60.500 449
 60.520 493
 60.540 502
 60.560 515
 60.580 650
 60.600 600
 60.620 708
 60.640 708
 60.660 790
 60.680 784
 60.700 824
 60.720 847
 60.740 841
 60.760 894
 60.780 829
 60.800 835
 60.820 853
 60.840 864
 60.860 773
 60.880 740
 60.900 702
 60.920 686
 60.940 660
 60.960 625
 60.980 581
 61.000 524
 61.020 511
 61.040 467
 61.060 416
 61.080 433
 61.100 384
 61.120 361
 61.140 331
 61.160 317
 61.180 310
 61.200 296
 61.220 289
 61.240 276
 61.260 262
 61.280 272
 61.300 250
 61.320 237
 61.340 276
 61.360 246
 61.380 269
 61.400 262
 61.420 246
 61.440 207
 61.460 282
 61.480 246
 61.500 240
 61.520 276
 61.540 213
 61.560 213
 61.580 213
 61.600 213
 61.620 219
 61.640 225
 61.660 213
 61.680 231
 61.700 231
 61.720 222
 61.740 237
 61.760 213
 61.780 225
 61.800 207
 61.820 225
 61.840 231
 61.860 234
 61.880 246
 61.900 222
 61.920 222
 61.940 250
 61.960 216
 61.980 225
 62.000 202
 62.020 243
 62.040 219
 62.060 231
 62.080 207
 62.100 228
 62.120 259
 62.140 237
 62.160 228
 62.180 225
 62.200 253
 62.220 234
 62.240 243
 62.260 269
 62.280 237
 62.300 259
 62.320 259
 62.340 266
 62.360 272
 62.380 306
 62.400 279
 62.420 328
 62.440 310
 62.460 339
 62.480 324
 62.500 324
 62.520 313
 62.540 313
 62.560 306
 62.580 313
 62.600 328
 62.620 303
 62.640 306
 62.660 331
 62.680 324
 62.700 320
 62.720 339
 62.740 306
 62.760 303
 62.780 306
 62.800 328
 62.820 292
 62.840 320
 62.860 317
 62.880 320
 62.900 303
 62.920 306
 62.940 369
 62.960 388
 62.980 372
 63.000 416
 63.020 454
 63.040 445
 63.060 497
 63.080 534
 63.100 552
 63.120 645
 63.140 686
 63.160 807
 63.180 864
 63.200 999
 63.220 1076
 63.240 1204
 63.260 1384
 63.280 1467
 63.300 1656
 63.320 1910
 63.340 2314
 63.360 2673
 63.380 3215
 63.400 3540
 63.420 3994
 63.440 4122
 63.460 3782
 63.480 3364
 63.500 2927
 63.520 2611
 63.540 2430
 63.560 2430
 63.580 2421
 63.600 2611
 63.620 2343
 63.640 2153
 63.660 1789
 63.680 1544
 63.700 1204
 63.720 924
 63.740 829
 63.760 702
 63.780 625
 63.800 581
 63.820 502
 63.840 458
 63.860 428
 63.880 392
 63.900 342
 63.920 388
 63.940 339
 63.960 353
 63.980 328
 64.000 353
 64.020 335
 64.040 342
 64.060 361
 64.080 353
 64.100 324
 64.120 357
 64.140 365
 64.160 342
 64.180 350
 64.200 372
 64.220 361
 64.240 342
 64.260 353
 64.280 310
 64.300 380
 64.320 350
 64.340 331
 64.360 331
 64.380 346
 64.400 320
 64.420 299
 64.440 289
 64.460 279
 64.480 276
 64.500 313
 64.520 256
 64.540 269
 64.560 246
 64.580 262
 64.600 306
 64.620 253
 64.640 279
 64.660 231
 64.680 213
 64.700 234
 64.720 199
 64.740 225
 64.760 259
 64.780 199
 64.800 225
 64.820 219
 64.840 216
 64.860 219
 64.880 210
 64.900 182
 64.920 222
 64.940 210
 64.960 222
 64.980 216
 65.000 196
 65.020 250
 65.040 228
 65.060 234
 65.080 253
 65.100 219
 65.120 256
 65.140 228
 65.160 246
 65.180 234
 65.200 276
 65.220 237
 65.240 289
 65.260 262
 65.280 276
 65.300 279
 65.320 269
 65.340 279
 65.360 272
 65.380 279
 65.400 262
 65.420 286
 65.440 286
 65.460 253
 65.480 299
 65.500 256
 65.520 306
 65.540 276
 65.560 289
 65.580 279
 65.600 286
 65.620 292
 65.640 313
 65.660 317
 65.680 350
 65.700 328
 65.720 339
 65.740 392
 65.760 380
 65.780 441
 65.800 420
 65.820 437
 65.840 424
 65.860 392
 65.880 467
 65.900 437
 65.920 428
 65.940 484
 65.960 454
 65.980 441
 66.000 467
 66.020 441
 66.040 467
 66.060 396
 66.080 388
 66.100 396
 66.120 353
 66.140 376
 66.160 380
 66.180 328
 66.200 328
 66.220 331
 66.240 286
 66.260 324
 66.280 276
 66.300 279
 66.320 320
 66.340 276
 66.360 262
 66.380 282
 66.400 279
 66.420 269
 66.440 292
 66.460 317
 66.480 331
 66.500 306
 66.520 346
 66.540 384
 66.560 396
 66.580 404
 66.600 437
 66.620 428
 66.640 484
 66.660 441
 66.680 497
 66.700 502
 66.720 520
 66.740 538
 66.760 566
 66.780 566
 66.800 534
 66.820 548
 66.840 488
 66.860 548
 66.880 497
 66.900 506
 66.920 475
 66.940 480
 66.960 441
 66.980 424
 67.000 437
 67.020 376
 67.040 384
 67.060 350
 67.080 346
 67.100 339
 67.120 303
 67.140 324
 67.160 328
 67.180 303
 67.200 282
 67.220 299
 67.240 317
 67.260 328
 67.280 350
 67.300 353
 67.320 350
 67.340 357
 67.360 376
 67.380 365
 67.400 400
 67.420 475
 67.440 475
 67.460 471
 67.480 515
 67.500 595
 67.520 557
 67.540 640
 67.560 650
 67.580 645
 67.600 640
 67.620 615
 67.640 605
 67.660 650
 67.680 615
 67.700 548
 67.720 515
 67.740 520
 67.760 511
 67.780 511
 67.800 467
 67.820 471
 67.840 458
 67.860 416
 67.880 400
 67.900 331
 67.920 357
 67.940 339
 67.960 313
 67.980 276
 68.000 279
 68.020 279
 68.040 289
 68.060 279
 68.080 276
 68.100 253
 68.120 253
 68.140 296
 68.160 243
 68.180 250
 68.200 250
 68.220 250
 68.240 228
 68.260 272
 68.280 256
 68.300 219
 68.320 246
 68.340 272
 68.360 282
 68.380 266
 68.400 250
 68.420 269
 68.440 246
 68.460 299
 68.480 286
 68.500 310
 68.520 299
 68.540 328
 68.560 310
 68.580 335
 68.600 335
 68.620 357
 68.640 339
 68.660 441
 68.680 454
 68.700 458
 68.720 511
 68.740 543
 68.760 620
 68.780 660
 68.800 762
 68.820 876
 68.840 992
 68.860 1176
 68.880 1376
 68.900 1592
 68.920 1731
 68.940 1910
 68.960 1971
 68.980 1823
 69.000 1616
 69.020 1362
 69.040 1274
 69.060 1239
 69.080 1232
 69.100 1170
 69.120 1190
 69.140 1204
 69.160 1116
 69.180 1043
 69.200 888
 69.220 745
 69.240 697
 69.260 586
 69.280 480
 69.300 467
 69.320 408
 69.340 400
 69.360 424
 69.380 388
 69.400 372
 69.420 331
 69.440 335
 69.460 335
 69.480 331
 69.500 272
 69.520 299
 69.540 299
 69.560 282
 69.580 296
 69.600 269
 69.620 286
 69.640 296
 69.660 313
 69.680 289
 69.700 286
 69.720 310
 69.740 299
 69.760 306
 69.780 350
 69.800 328
 69.820 372
 69.840 384
 69.860 380
 69.880 441
 69.900 437
 69.920 433
 69.940 515
 69.960 511
 69.980 571
 70.000 562
 70.020 557
 70.040 600
 70.060 645
 70.080 681
 70.100 708
 70.120 724
 70.140 790
 70.160 835
 70.180 930
 70.200 967
 70.220 1170
 70.240 1332
 70.260 1521
 70.280 1714
 70.300 1689
 70.320 1648
 70.340 1537
 70.360 1325
 70.380 1156
 70.400 980
 70.420 1018
 70.440 949
 70.460 967
 70.480 986
 70.500 1037
 70.520 853
 70.540 870
 70.560 740
 70.580 660
 70.600 576
 70.620 488
 70.640 420
 70.660 408
 70.680 350
 70.700 350
 70.720 346
 70.740 320
 70.760 313
 70.780 369
 70.800 320
 70.820 310
 70.840 331
 70.860 306
 70.880 357
 70.900 339
 70.920 313
 70.940 313
 70.960 339
 70.980 292
 71.000 342
 71.020 292
 71.040 299
 71.060 299
 71.080 276
 71.100 262
 71.120 276
 71.140 250
 71.160 256
 71.180 256
 71.200 259
 71.220 253
 71.240 250
 71.260 234
 71.280 246
 71.300 250
 71.320 219
 71.340 231
 71.360 246
 71.380 219
 71.400 225
 71.420 240
 71.440 213
 71.460 216
 71.480 237
 71.500 193
 71.520 222
 71.540 231
 71.560 213
 71.580 240
 71.600 219
 71.620 240
 71.640 228
 71.660 243
 71.680 231
 71.700 243
 71.720 222
 71.740 240
 71.760 234
 71.780 243
 71.800 240
 71.820 240
 71.840 269
 71.860 253
 71.880 286
 71.900 231
 71.920 272
 71.940 272
 71.960 272
 71.980 250
 72.000 272
 72.020 269
 72.040 292
 72.060 317
 72.080 279
 72.100 299
 72.120 320
 72.140 286
 72.160 313
 72.180 310
 72.200 317
 72.220 376
 72.240 346
 72.260 346
 72.280 342
 72.300 361
 72.320 392
 72.340 449
 72.360 420
 72.380 408
 72.400 458
 72.420 467
 72.440 471
 72.460 520
 72.480 506
 72.500 480
 72.520 515
 72.540 511
 72.560 548
 72.580 480
 72.600 506
 72.620 543
 72.640 511
 72.660 502
 72.680 543
 72.700 441
 72.720 454
 72.740 480
 72.760 462
 72.780 493
 72.800 454
 72.820 497
 72.840 441
 72.860 511
 72.880 543
 72.900 557
 72.920 671
 72.940 824
 72.960 942
 72.980 1232
 73.000 1362
 73.020 1560
 73.040 1665
 73.060 1681
 73.080 1537
 73.100 1340
 73.120 1183
 73.140 1043
 73.160 949
 73.180 942
 73.200 980
 73.220 992
 73.240 1030
 73.260 1043
 73.280 992
 73.300 955
 73.320 790
 73.340 740
 73.360 562
 73.380 502
 73.400 484
 73.420 475
 73.440 449
 73.460 428
 73.480 416
 73.500 365
 73.520 408
 73.540 353
 73.560 335
 73.580 335
 73.600 313
 73.620 289
 73.640 310
 73.660 299
 73.680 317
 73.700 269
 73.720 272
 73.740 262
 73.760 231
 73.780 246
 73.800 250
 73.820 240
 73.840 222
 73.860 243
 73.880 231
 73.900 237
 73.920 234
 73.940 256
 73.960 231
 73.980 234
 74.000 237
 74.020 276
 74.040 216
 74.060 237
 74.080 234
 74.100 213
 74.120 243
 74.140 237
 74.160 216
 74.180 207
 74.200 240
 74.220 228
 74.240 246
 74.260 234
 74.280 231
 74.300 225
 74.320 250
 74.340 207
 74.360 219
 74.380 196
 74.400 202
 74.420 222
 74.440 219
 74.460 207
 74.480 199
 74.500 188
 74.520 182
 74.540 202
 74.560 182
 74.580 180
 74.600 193
 74.620 174
 74.640 199
 74.660 180
 74.680 174
 74.700 180
 74.720 185
 74.740 182
 74.760 154
 74.780 180
 74.800 174
 74.820 188
 74.840 185
 74.860 159
 74.880 172
 74.900 182
 74.920 180
 74.940 182
 74.960 177
 74.980 174
 75.000 190
 75.020 182
 75.040 182
 75.060 161
 75.080 174
 75.100 190
 75.120 166
 75.140 177
 75.160 196
 75.180 161
 75.200 164
 75.220 196
 75.240 177
 75.260 172
 75.280 202
 75.300 202
 75.320 196
 75.340 190
 75.360 225
 75.380 210
 75.400 180
 75.420 231
 75.440 231
 75.460 210
 75.480 231
 75.500 234
 75.520 256
 75.540 237
 75.560 256
 75.580 306
 75.600 282
 75.620 310
 75.640 310
 75.660 306
 75.680 350
 75.700 320
 75.720 331
 75.740 320
 75.760 276
 75.780 317
 75.800 313
 75.820 331
 75.840 339
 75.860 282
 75.880 317
 75.900 303
 75.920 310
 75.940 282
 75.960 272
 75.980 286
 76.000 266
 76.020 289
 76.040 259
 76.060 256
 76.080 246
 76.100 262
 76.120 228
 76.140 237
 76.160 237
 76.180 234
 76.200 246
 76.220 243
 76.240 276
 76.260 286
 76.280 269
 76.300 259
 76.320 320
 76.340 299
 76.360 286
 76.380 306
 76.400 303
 76.420 328
 76.440 342
 76.460 350
 76.480 331
 76.500 342
 76.520 296
 76.540 342
 76.560 361
 76.580 306
 76.600 342
 76.620 306
 76.640 339
 76.660 331
 76.680 303
 76.700 276
 76.720 289
 76.740 276
 76.760 272
 76.780 313
 76.800 262
 76.820 292
 76.840 246
 76.860 240
 76.880 243
 76.900 246
 76.920 237
 76.940 240
 76.960 231
 76.980 202
 77.000 202
 77.020 216
 77.040 219
 77.060 216
 77.080 246
 77.100 188
 77.120 210
 77.140 210
 77.160 216
 77.180 169
 77.200 213
 77.220 216
 77.240 228
 77.260 243
 77.280 231
 77.300 193
 77.320 199
 77.340 193
 77.360 193
 77.380 213
 77.400 219
 77.420 196
 77.440 204
 77.460 202
 77.480 182
 77.500 193
 77.520 210
 77.540 193
 77.560 196
 77.580 185
 77.600 188
 77.620 188
 77.640 188
 77.660 199
 77.680 193
 77.700 204
 77.720 164
 77.740 193
 77.760 222
 77.780 185
 77.800 213
 77.820 196
 77.840 196
 77.860 216
 77.880 207
 77.900 216
 77.920 222
 77.940 207
 77.960 222
 77.980 210
 78.000 231
 78.020 219
 78.040 250
 78.060 269
 78.080 262
 78.100 296
 78.120 361
 78.140 331
 78.160 400
 78.180 458
 78.200 400
 78.220 433
 78.240 404
 78.260 369
 78.280 350
 78.300 350
 78.320 266
 78.340 296
 78.360 296
 78.380 279
 78.400 324
 78.420 328
 78.440 310
 78.460 286
 78.480 276
 78.500 253
 78.520 246
 78.540 243
 78.560 210
 78.580 216
 78.600 185
 78.620 207
 78.640 196
 78.660 169
 78.680 169
 78.700 174
 78.720 193
 78.740 166
 78.760 177
 78.780 149
 78.800 164
 78.820 172
 78.840 161
 78.860 156
 78.880 151
 78.900 177
 78.920 172
 78.940 161
 78.960 169
 78.980 154
 79.000 169
 79.020 169
 79.040 146
 79.060 156
 79.080 174
 79.100 139
 79.120 193
 79.140 180
 79.160 161
 79.180 190
 79.200 159
 79.220 169
 79.240 213
 79.260 174
 79.280 216
 79.300 164
 79.320 151
 79.340 193
 79.360 199
 79.380 188
 79.400 199
 79.420 234
 79.440 213
 79.460 199
 79.480 234
 79.500 240
 79.520 246
 79.540 237
 79.560 256
 79.580 237
 79.600 286
 79.620 256
 79.640 282
 79.660 289
 79.680 262
 79.700 292
 79.720 272
 79.740 276
 79.760 266
 79.780 246
 79.800 256
 79.820 272
 79.840 243
 79.860 282
 79.880 231
 79.900 240
 79.920 237
 79.940 219
 79.960 250
 79.980 250
 80.000 228
 80.020 213
 80.040 207
 80.060 231
 80.080 228
 80.100 213
 80.120 204
 80.140 210
 80.160 213
 80.180 243
 80.200 210
 80.220 219
 80.240 222
 80.260 222
 80.280 202
 80.300 216
 80.320 219
 80.340 237
 80.360 243
 80.380 228
 80.400 237
 80.420 246
 80.440 237
 80.460 228
 80.480 246
 80.500 222
 80.520 250
 80.540 231
 80.560 234
 80.580 240
 80.600 276
 80.620 216
 80.640 225
 80.660 222
 80.680 246
 80.700 219
 80.720 216
 80.740 219
 80.760 193
 80.780 204
 80.800 185
 80.820 204
 80.840 188
 80.860 207
 80.880 202
 80.900 180
 80.920 199
 80.940 174
 80.960 169
 80.980 164
 81.000 188
 81.020 172
 81.040 196
 81.060 159
 81.080 185
 81.100 164
 81.120 174
 81.140 180
 81.160 151
 81.180 159
 81.200 193
 81.220 193
 81.240 137
 81.260 161
 81.280 185
 81.300 144
 81.320 154
 81.340 154
 81.360 166
 81.380 177
 81.400 169
 81.420 159
 81.440 190
 81.460 174
 81.480 196
 81.500 164
 81.520 161
 81.540 180
 81.560 185
 81.580 172
 81.600 182
 81.620 172
 81.640 219
 81.660 188
 81.680 210
 81.700 219
 81.720 256
 81.740 231
 81.760 246
 81.780 256
 81.800 240
 81.820 299
 81.840 282
 81.860 286
 81.880 276
 81.900 320
 81.920 342
 81.940 335
 81.960 376
 81.980 331
 82.000 372
 82.020 433
 82.040 441
 82.060 441
 82.080 480
 82.100 529
 82.120 488
 82.140 515
 82.160 462
 82.180 445
 82.200 433
 82.220 454
 82.240 396
 82.260 437
 82.280 380
 82.300 369
 82.320 357
 82.340 365
 82.360 380
 82.380 353
 82.400 365
 82.420 357
 82.440 313
 82.460 353
 82.480 342
 82.500 279
 82.520 276
 82.540 282
 82.560 259
 82.580 269
 82.600 282
 82.620 279
 82.640 272
 82.660 272
 82.680 292
 82.700 276
 82.720 310
 82.740 292
 82.760 289
 82.780 282
 82.800 289
 82.820 262
 82.840 296
 82.860 299
 82.880 269
 82.900 262
 82.920 313
 82.940 286
 82.960 262
 82.980 266
 83.000 276
 83.020 253
 83.040 243
 83.060 262
 83.080 225
 83.100 219
 83.120 246
 83.140 237
 83.160 210
 83.180 234
 83.200 250
 83.220 243
 83.240 213
 83.260 225
 83.280 243
 83.300 204
 83.320 250
 83.340 216
 83.360 243
 83.380 240
 83.400 219
 83.420 246
 83.440 222
 83.460 262
 83.480 253
 83.500 276
 83.520 272
 83.540 259
 83.560 276
 83.580 234
 83.600 262
 83.620 269
 83.640 266
 83.660 269
 83.680 253
 83.700 259
 83.720 272
 83.740 256
 83.760 231
 83.780 266
 83.800 231
 83.820 243
 83.840 240
 83.860 213
 83.880 225
 83.900 202
 83.920 204
 83.940 216
 83.960 225
 83.980 196
 84.000 210
 84.020 199
 84.040 202
 84.060 188
 84.080 190
 84.100 188
 84.120 149
 84.140 188
 84.160 210
 84.180 188
 84.200 196
 84.220 193
 84.240 182
 84.260 177
 84.280 190
 84.300 202
 84.320 182
 84.340 188
 84.360 199
 84.380 164
 84.400 188
 84.420 174
 84.440 188
 84.460 174
 84.480 182
 84.500 180
 84.520 216
 84.540 151
 84.560 172
 84.580 180
 84.600 159
 84.620 177
 84.640 159
 84.660 174
 84.680 196
 84.700 182
 84.720 174
 84.740 159
 84.760 185
 84.780 207
 84.800 164
 84.820 190
 84.840 182
 84.860 196
 84.880 166
 84.900 190
 84.920 207
 84.940 164
 84.960 190
 84.980 202
 85.000 199
 85.020 207
 85.040 185
 85.060 204
 85.080 204
 85.100 188
 85.120 180
 85.140 216
 85.160 207
 85.180 202
 85.200 202
 85.220 193
 85.240 193
 85.260 174
 85.280 188
 85.300 219
 85.320 207
 85.340 199
 85.360 207
 85.380 185
 85.400 177
 85.420 213
 85.440 222
 85.460 188
 85.480 222
 85.500 219
 85.520 193
 85.540 210
 85.560 216
 85.580 193
 85.600 182
 85.620 234
 85.640 222
 85.660 219
 85.680 231
 85.700 246
 85.720 262
 85.740 246
 85.760 259
 85.780 237
 85.800 246
 85.820 243
 85.840 279
 85.860 292
 85.880 253
 85.900 219
 85.920 237
 85.940 282
 85.960 259
 85.980 276
 86.000 272
 86.020 225
 86.040 259
 86.060 237
 86.080 269
 86.100 256
 86.120 266
 86.140 225
 86.160 276
 86.180 231
 86.200 246
 86.220 222
 86.240 250
 86.260 243
 86.280 210
 86.300 225
 86.320 222
 86.340 231
 86.360 219
 86.380 250
 86.400 234
 86.420 240
 86.440 240
 86.460 234
 86.480 259
 86.500 250
 86.520 272
 86.540 222
 86.560 282
 86.580 253
 86.600 256
 86.620 289
 86.640 276
 86.660 313
 86.680 286
 86.700 266
 86.720 292
 86.740 256
 86.760 259
 86.780 272
 86.800 243
 86.820 262
 86.840 237
 86.860 259
 86.880 272
 86.900 246
 86.920 259
 86.940 222
 86.960 246
 86.980 256
 87.000 222
 87.020 253
 87.040 231
 87.060 253
 87.080 202
 87.100 219
 87.120 225
 87.140 216
 87.160 202
 87.180 210
 87.200 228
 87.220 210
 87.240 225
 87.260 207
 87.280 216
 87.300 219
 87.320 190
 87.340 182
 87.360 240
 87.380 210
 87.400 210
 87.420 182
 87.440 156
 87.460 202
 87.480 185
 87.500 188
 87.520 180
 87.540 199
 87.560 164
 87.580 182
 87.600 193
 87.620 196
 87.640 188
 87.660 166
 87.680 177
 87.700 151
 87.720 169
 87.740 166
 87.760 174
 87.780 174
 87.800 204
 87.820 188
 87.840 185
 87.860 185
 87.880 222
 87.900 174
 87.920 204
 87.940 199
 87.960 204
 87.980 196
 88.000 213
 88.020 216
 88.040 213
 88.060 188
 88.080 231
 88.100 213
 88.120 202
 88.140 222
 88.160 225
 88.180 202
 88.200 219
 88.220 210
 88.240 228
 88.260 237
 88.280 219
 88.300 210
 88.320 222
 88.340 216
 88.360 243
 88.380 228
 88.400 216
 88.420 207
 88.440 213
 88.460 219
 88.480 207
 88.500 225
 88.520 199
 88.540 204
 88.560 177
 88.580 207
 88.600 213
 88.620 182
 88.640 182
 88.660 177
 88.680 180
 88.700 196
 88.720 174
 88.740 199
 88.760 174
 88.780 196
 88.800 182
 88.820 199
 88.840 182
 88.860 159
 88.880 169
 88.900 177
 88.920 193
 88.940 174
 88.960 196
 88.980 188
 89.000 174
 89.020 188
 89.040 151
 89.060 169
 89.080 180
 89.100 164
 89.120 177
 89.140 166
 89.160 193
 89.180 202
 89.200 174
 89.220 188
 89.240 180
 89.260 196
 89.280 174
 89.300 188
 89.320 190
 89.340 159
 89.360 188
 89.380 174
 89.400 210
 89.420 210
 89.440 196
 89.460 202
 89.480 225
 89.500 164
 89.520 190
 89.540 246
 89.560 202
 89.580 228
 89.600 219
 89.620 228
 89.640 231
 89.660 228
 89.680 228
 89.700 234
 89.720 256
 89.740 243
 89.760 231
 89.780 193
 89.800 231
 89.820 210
 89.840 234
 89.860 253
 89.880 228
 89.900 250
 89.920 246
 89.940 219
 89.960 246
 89.980 222
 90.000 225
 90.020 234
 90.040 193
 90.060 210
 90.080 213
 90.100 204
 90.120 225
 90.140 180
 90.160 196
 90.180 213
 90.200 207
 90.220 185
 90.240 177
 90.260 182
 90.280 193
 90.300 188
 90.320 196
 90.340 193
 90.360 193
 90.380 185
 90.400 185
 90.420 193
 90.440 177
 90.460 182
 90.480 202
 90.500 231
 90.520 202
 90.540 204
 90.560 190
 90.580 202
 90.600 202
 90.620 188
 90.640 225
 90.660 243
 90.680 225
 90.700 222
 90.720 240
 90.740 253
 90.760 266
 90.780 286
 90.800 262
 90.820 353
 90.840 331
 90.860 350
 90.880 416
 90.900 433
 90.920 454
 90.940 484
 90.960 484
 90.980 529
 91.000 520
 91.020 437
 91.040 437
 91.060 408
 91.080 369
 91.100 331
 91.120 357
 91.140 365
 91.160 331
 91.180 380
 91.200 376
 91.220 346
 91.240 369
 91.260 357
 91.280 335
 91.300 320
 91.320 342
 91.340 339
 91.360 310
 91.380 306
 91.400 269
 91.420 259
 91.440 266
 91.460 282
 91.480 253
 91.500 225
 91.520 231
 91.540 228
 91.560 222
 91.580 240
 91.600 240
 91.620 202
 91.640 231
 91.660 196
 91.680 222
 91.700 219
 91.720 216
 91.740 213
 91.760 231
 91.780 225
 91.800 228
 91.820 190
 91.840 213
 91.860 204
 91.880 234
 91.900 219
 91.920 250
 91.940 219
 91.960 216
 91.980 222
 92.000 237
 92.020 243
 92.040 216
 92.060 219
 92.080 262
 92.100 225
 92.120 253
 92.140 199
 92.160 262
 92.180 240
 92.200 199
 92.220 253
 92.240 213
 92.260 210
 92.280 185
 92.300 228
 92.320 228
 92.340 216
 92.360 207
 92.380 207
 92.400 185
 92.420 204
 92.440 199
 92.460 213
 92.480 185
 92.500 177
 92.520 202
 92.540 199
 92.560 182
 92.580 202
 92.600 174
 92.620 174
 92.640 180
 92.660 210
 92.680 161
 92.700 172
 92.720 164
 92.740 169
 92.760 199
 92.780 177
 92.800 182
 92.820 161
 92.840 159
 92.860 177
 92.880 135
 92.900 159
 92.920 139
 92.940 159
 92.960 172
 92.980 139
 93.000 146
 93.020 164
 93.040 169
 93.060 172
 93.080 154
 93.100 161
 93.120 177
 93.140 169
 93.160 137
 93.180 151
 93.200 146
 93.220 156
 93.240 159
 93.260 130
 93.280 149
 93.300 169
 93.320 159
 93.340 164
 93.360 164
 93.380 151
 93.400 156
 93.420 137
 93.440 169
 93.460 159
 93.480 142
 93.500 142
 93.520 146
 93.540 144
 93.560 135
 93.580 142
 93.600 142
 93.620 151
 93.640 180
 93.660 180
 93.680 149
 93.700 151
 93.720 156
 93.740 154
 93.760 169
 93.780 146
 93.800 166
 93.820 159
 93.840 156
 93.860 159
 93.880 188
 93.900 174
 93.920 144
 93.940 166
 93.960 156
 93.980 172
 94.000 166
 94.020 172
 94.040 174
 94.060 177
 94.080 164
 94.100 188
 94.120 204
 94.140 185
 94.160 159
 94.180 188
 94.200 196
 94.220 196
 94.240 210
 94.260 190
 94.280 193
 94.300 216
 94.320 196
 94.340 202
 94.360 159
 94.380 196
 94.400 225
 94.420 219
 94.440 188
 94.460 202
 94.480 216
 94.500 213
 94.520 222
 94.540 182
 94.560 213
 94.580 199
 94.600 219
 94.620 219
 94.640 246
 94.660 228
 94.680 237
 94.700 246
 94.720 262
 94.740 225
 94.760 228
 94.780 231
 94.800 237
 94.820 234
 94.840 234
 94.860 237
 94.880 243
 94.900 225
 94.920 216
 94.940 228
 94.960 216
 94.980 246
 95.000 240
 95.020 207
 95.040 213
 95.060 237
 95.080 246
 95.100 228
 95.120 196
 95.140 219
 95.160 222
 95.180 202
 95.200 182
 95.220 193
 95.240 196
 95.260 213
 95.280 193
 95.300 196
 95.320 174
 95.340 196
 95.360 190
 95.380 188
 95.400 164
 95.420 177
 95.440 188
 95.460 202
 95.480 174
 95.500 202
 95.520 182
 95.540 172
 95.560 190
 95.580 182
 95.600 154
 95.620 185
 95.640 188
 95.660 204
 95.680 161
 95.700 190
 95.720 174
 95.740 149
 95.760 166
 95.780 169
 95.800 182
 95.820 193
 95.840 161
 95.860 161
 95.880 174
 95.900 193
 95.920 164
 95.940 177
 95.960 144
 95.980 142
 96.000 154
 96.020 169
 96.040 207
 96.060 164
 96.080 185
 96.100 166
 96.120 166
 96.140 172
 96.160 172
 96.180 182
 96.200 164
 96.220 177
 96.240 177
 96.260 182
 96.280 164
 96.300 177
 96.320 174
 96.340 190
 96.360 172
 96.380 174
 96.400 172
 96.420 185
 96.440 169
 96.460 185
 96.480 169
 96.500 174
 96.520 169
 96.540 193
 96.560 193
 96.580 180
 96.600 196
 96.620 196
 96.640 196
 96.660 169
 96.680 190
 96.700 196
 96.720 172
 96.740 199
 96.760 202
 96.780 219
 96.800 190
 96.820 190
 96.840 193
 96.860 207
 96.880 222
 96.900 213
 96.920 225
 96.940 237
 96.960 237
 96.980 272
 97.000 246
 97.020 276
 97.040 279
 97.060 292
 97.080 313
 97.100 313
 97.120 339
 97.140 372
 97.160 408
 97.180 396
 97.200 493
 97.220 502
 97.240 576
 97.260 635
 97.280 692
 97.300 620
 97.320 650
 97.340 645
 97.360 586
 97.380 586
 97.400 529
 97.420 506
 97.440 484
 97.460 467
 97.480 437
 97.500 454
 97.520 437
 97.540 449
 97.560 467
 97.580 467
 97.600 475
 97.620 462
 97.640 441
 97.660 424
 97.680 412
 97.700 412
 97.720 380
 97.740 376
 97.760 342
 97.780 328
 97.800 286
 97.820 286
 97.840 276
 97.860 289
 97.880 262
 97.900 243
 97.920 259
 97.940 237
 97.960 240
 97.980 243
 98.000 237
 98.020 222
 98.040 225
 98.060 243
 98.080 237
 98.100 204
 98.120 204
 98.140 253
 98.160 202
 98.180 204
 98.200 193
 98.220 228
 98.240 199
 98.260 202
 98.280 216
 98.300 237
 98.320 204
 98.340 204
 98.360 207
 98.380 210
 98.400 199
 98.420 185
 98.440 177
 98.460 199
 98.480 169
 98.500 219
 98.520 196
 98.540 202
 98.560 213
 98.580 213
 98.600 219
 98.620 228
 98.640 219
 98.660 228
 98.680 222
 98.700 216
 98.720 207
 98.740 225
 98.760 222
 98.780 262
 98.800 253
 98.820 222
 98.840 237
 98.860 213
 98.880 246
 98.900 225
 98.920 228
 98.940 286
 98.960 253
 98.980 231
 99.000 253
 99.020 266
 99.040 269
 99.060 246
 99.080 246
 99.100 266
 99.120 266
 99.140 262
 99.160 262
 99.180 276
 99.200 256
 99.220 246
 99.240 225
 99.260 250
 99.280 286
 99.300 246
 99.320 279
 99.340 234
 99.360 219
 99.380 243
 99.400 259
 99.420 262
 99.440 259
 99.460 246
 99.480 272
 99.500 243
 99.520 266
 99.540 259
 99.560 256
 99.580 276
 99.600 259
 99.620 310
 99.640 259
 99.660 269
 99.680 262
 99.700 313
 99.720 317
 99.740 296
 99.760 328
 99.780 392
 99.800 437
 99.820 437
 99.840 462
 99.860 534
 99.880 515
 99.900 534
 99.920 529
 99.940 511
 99.960 534
 99.980 462
100.000 0

#---- reflection table -----
loop_
      _refln_index_h
      _refln_index_k
      _refln_index_l
      _refln_F_calc
      _refln_F_squared_sigma
      _pd_refln_phase_id

1	0	0	2393.91	0	1
1	1	0	1041.35	0	1
1	1	1	225.68	1.05	1
2	0	0	640.06	188.89	1
1	2	0	1246.99	0	1
2	1	0	1090.01	0	1
2	1	1	839.3	0	1
2	2	0	1626.8	0	1
2	2	1	162.22	0.69	1
3	0	0	418.96	1.06	1
1	3	0	1366.4	0	1
3	1	0	1409.02	0	1
3	1	1	30.77	4.39	1
2	2	2	3877.65	0	1
2	3	0	987.85	0	1
3	2	0	4978.56	0	1
2	3	1	3208.61	0	1
3	2	1	2261.7	0	1
4	0	0	7325.04	0	1
1	4	0	1743.32	0	1
3	2	2	3956.75	0	1
4	1	0	1457.62	0	1
3	3	0	2659.77	0	1
4	1	1	1970.69	0	1
3	3	1	903.67	0.06	1
2	4	0	2883.51	0	1
4	2	0	4372.62	0	1
2	4	1	2571.51	0	1
4	2	1	1060.44	0	1
3	3	2	1523.51	0	1
4	2	2	795.15	0.05	1
3	4	0	283.11	0.01	1
4	3	0	3637.84	0	1
5	0	0	88.81	0.05	1
1	5	0	1926.47	0.01	1
3	4	1	232.42	0.04	1
4	3	1	412.53	0.02	1
5	1	0	463.79	0.04	1
3	3	3	1421.17	0.06	1
5	1	1	458.39	0.06	1
2	5	0	1148.54	0.02	1
3	4	2	1029.24	0.01	1
4	3	2	574.35	0.02	1
5	2	0	1403.8	0.01	1
2	5	1	145.92	2	1
5	2	1	105.9	2.75	1
4	4	0	1494.35	0.06	1
4	4	1	1250.14	0.01	1
5	2	2	657.59	0.03	1
3	5	0	299.83	0.04	1
4	3	3	951.71	0.01	1
5	3	0	2790.65	0	1
3	5	1	46.8	0.62	1
5	3	1	555.76	0.05	1
4	4	2	1278.69	0.01	1
6	0	0	3316.56	0.02	1
1	6	0	676.06	0.31	1
6	1	0	377.96	0.55	1
3	5	2	3424.56	0	1
5	3	2	812.59	0	1
6	1	1	1566.99	0	1
2	6	0	1994.22	0.02	1
6	2	0	909.26	0.04	1
2	6	1	1626.08	0	1
4	4	3	3152.28	0	1
4	5	0	2719.41	0	1
5	4	0	492.8	0	1
6	2	1	369.89	0	1
4	5	1	166.57	0.05	1
5	4	1	1817.29	0	1
5	3	3	61.61	3.25	1
6	2	2	2887.28	0	1
3	6	0	3507.5	0	1
4	5	2	1383.33	0	1
5	4	2	465.82	0.01	1
6	3	0	2017.15	0	1
3	6	1	2656.23	0	1
6	3	1	1370.87	0	1
4	4	4	2077.44	0.01	1
3	6	2	2754.44	0	1
6	3	2	1082.53	0	1
7	0	0	2778.88	0	1
1	7	0	685.62	0.04	1
4	5	3	1505.21	0.01	1
5	4	3	136.94	0.1	1
5	5	0	681.27	0.04	1
7	1	0	1288.58	0.02	1
5	5	1	1028.07	0.06	1
7	1	1	194.24	0.32	1
4	6	0	630.02	0.02	1
6	4	0	5218.08	0	1
2	7	0	2716.08	0	1
4	6	1	151	0.03	1
6	4	1	2374.34	0	1
7	2	0	1056.11	0.01	1
2	7	1	1017.52	0.03	1
5	5	2	229.93	0.12	1
6	3	3	243.13	0.11	1
7	2	1	1241.99	0.02	1
4	6	2	2620.63	0.01	1
6	4	2	6.77	2.3	1
5	4	4	2696.28	0	1
7	2	2	628.28	0.02	1
3	7	0	1739.36	0.05	1
7	3	0	964.25	0.09	1
3	7	1	199.24	0.13	1
5	5	3	547.69	0.05	1
7	3	1	837.91	0.03	1
4	6	3	1931.51	0.01	1
5	6	0	1160.26	0.04	1
6	4	3	411.73	0.06	1
6	5	0	1701	0.03	1
3	7	2	755.92	0.03	1
5	6	1	691.92	0.03	1
6	5	1	396.81	0.06	1
7	3	2	1752.25	0.01	1
8	0	0	4866.8	0.01	1
1	8	0	1102.14	0.02	1
4	7	0	5.86	2.7	1
5	6	2	1094.17	0.01	1
6	5	2	652.65	0.01	1
7	4	0	2646.77	0.01	1
8	1	0	1219.12	0.02	1
4	7	1	1471.59	0.01	1
5	5	4	549.27	0.03	1
7	4	1	553.15	0.03	1
8	1	1	1630.76	0.01	1
7	3	3	1298.31	0.04	1
2	8	0	204.68	0.46	1
6	4	4	1307.02	0.04	1
8	2	0	1321.3	0.07	1
2	8	1	289.46	0.07	1
4	7	2	1860.29	0.01	1
7	4	2	1558.01	0.01	1
8	2	1	899.06	0.02	1
5	6	3	2164.03	0.01	1
6	5	3	1638.05	0.02	1
6	6	0	163.5	0.63	1
8	2	2	2352.84	0.02	1
3	8	0	773.05	0.15	1
6	6	1	1052.12	0.06	1
8	3	0	638.72	0.18	1
3	8	1	571.3	0.05	1
4	7	3	1543.59	0.02	1
5	7	0	1798.56	0.03	1
7	4	3	643.85	0.05	1
7	5	0	1555.07	0.04	1
8	3	1	174.8	0.17	1
5	5	5	1411.71	0.07	1
5	7	1	46.33	0.67	1
7	5	1	228.63	0.14	1
6	6	2	1996	0	1
3	8	2	731.49	0.04	1
5	6	4	1222.48	0.02	1
6	5	4	1041.1	0.03	1
8	3	2	1653.91	0.02	1
5	7	2	170.4	1.48	1
7	5	2	80.29	3.09	1
4	8	0	1874.75	0.09	1
8	4	0	1960.66	0.09	1
4	8	1	1061.36	0.04	1
6	6	3	754.74	0.06	1
7	4	4	353.76	0.13	1
8	4	1	949.55	0.05	1
9	0	0	406.92	0.45	1
1	9	0	1069.66	0.25	1
8	3	3	511	0.26	1
9	1	0	386.43	0.69	1
5	7	3	589.85	0.12	1
7	5	3	176.62	0.4	1
9	1	1	288.96	0.24	1
4	8	2	506	0.02	1
8	4	2	2621.35	0	1
2	9	0	1145.36	0.07	1
6	7	0	804.63	0.1	1
7	6	0	607.94	0.13	1
9	2	0	1452.46	0.06	1
2	9	1	1118.99	0.22	1
6	5	5	91.48	2.6	1
6	7	1	1435.79	0.17	1
7	6	1	1854.72	0.13	1
9	2	1	772.25	0.31	1
1	0	0	218.3	0	2
0	0	2	749.9	0	2
1	0	1	397.73	0	2
1	0	2	226.88	0	2
1	1	0	313.83	0	2
1	0	3	348.24	0	2
2	0	0	140.36	0	2
1	1	2	298.38	0	2
2	0	1	250.17	0	2
0	0	4	593.77	0	2
2	0	2	132.21	0	2
1	0	4	151.18	0	2
2	0	3	188.82	0	2
2	1	0	94.71	0	2
2	1	1	159.89	0	2
1	1	4	173.04	1.3	2



#==============================================================================

# 8. REFINEMENT DATA

_computing_data_collection        'Xpert v1.0c (Philips Inc., 1997)'
_computing_cell_refinement        'Fullprof (Rodrigues-Carvajal, 1998)'
_computing_structure_solution     'SHELX-97 (Sheldrick, 1997)'
_computing_structure_refinement   'Fullprof (Rodrigues-Carvajal, 1998)'
_computing_publication_material   'publCIF'

#==============================================================================

_pd_proc_ls_prof_R_factor         0.087          
_pd_proc_ls_prof_wR_factor        0.124         
_pd_proc_ls_prof_wR_expected      0.044         

#==============================================================================
_refine_ls_structure_factor_coef     F
_refine_ls_matrix_type               full       
_refine_ls_number_parameters         41
_refine_ls_number_restraints         0
_refine_ls_number_constraints        0

# The following item is the same as CHI, the square root of 'CHI squared'
_refine_ls_goodness_of_fit_all       7.74

#--eof--eof--eof--eof--eof--eof--eof--eof--eof--eof--eof--eof--eof--eof--eof--#

