data_I

_publ_contact_letter 
;
Please consider this CIF for publication. I certify that this contibution is the
original work of those listed as authors; that it has not been published
before (in any language or medium) and is not being considered for publication
elsewhere; that all authors concur with and are aware of the submission; that
all workers involved in the study are listed as authors or given proper credit
in the acknowledgements; that I have obtained permission for and acknowledged
the source of any excerpts from other copyright works; and that to the best of
my knowledge the paper contains no statements which are libellous, unlawful or
in any way actionable. All coauthors have made significant scientific
contributions to the work reported, including the ideas and their execution,
and share responsibility and accountability for the results.
;


_publ_requested_category ?


_publ_section_exptl_prep
;
This section needs to be renamed as synthesis and crystallization.
;
#Added by publCIF



# publcif _publ_body_title loop start
loop_
_publ_body_label
_publ_body_contents


;
Chemical context
;
;
This article
;

;
Structural commentary
;
;

;

;
Supramolecular features
;
;

;
# publcif _publ_body_title loop end

_audit_update_record
;
2012-05-16 # Formatted by IUCr publCIF system

2012-07-30
# IUCr duplication query:
[[This is a duplication report for article xx0000.

Does this work.]]
;
#==============================================================================

# PROCESSING SUMMARY (IUCr Office Use Only)

_journal_date_recd_electronic      2012-05-17
_journal_date_to_coeditor         ?
_journal_date_from_coeditor       ?
_journal_date_accepted     2012-05-17
_journal_date_printers_first      ?
_journal_date_printers_final      ?
_journal_date_proofs_out          ?
_journal_date_proofs_in           ?
_journal_coeditor_name            ?
_journal_coeditor_code      WM2633
_journal_coeditor_notes
?
_journal_paper_category      CI
_journal_techeditor_code      c001234
_iucr_compatibility_tag          ACTA95
_journal_techeditor_notes  
;
;
_journal_coden_ASTM               ?
_journal_name_full                ?
_journal_year                     ?
_journal_volume                   ?
_journal_issue                    ?
_journal_page_first               ?
_journal_page_last                ?
_journal_suppl_publ_number        ?
_journal_suppl_publ_pages         ?

#==============================================================================

 
_audit_creation_date                    2012-04-16T12:42:53-00:00
_audit_creation_method                  'WinGX routine CIF_UPDATE'

_publ_requested_journal          
'Acta Crystallogr.,Sect.E:Struct.Rep.Online'
_publ_contact_author_name        'Timothy Munsie'
_publ_contact_author_address     

;
Department of Physics & Astronomy
ABB-241, McMaster University
1280 Main St. W
Hamilton, ON, L8S 4M1
Canada
;

_publ_contact_author_email       'tim.munsie@mcmaster.ca'
_publ_contact_author_phone       '1(905)5259140x21487'
_publ_contact_author_fax         '1(905)5461252'
loop_
_publ_author_name
_publ_author_address
_publ_author_footnote
_publ_author_email
'Munsie, T.J.S.'
;
Department of Physics & Astronomy
ABB-241, McMaster University
1280 Main St. W
Hamilton, ON, L8S 4M1
Canada
;
.
;
tim.munsie@mcmaster.ca
;
'Medina, T.'
;
Department of Physics & Astronomy
ABB-241, McMaster University
1280 Main St. W
Hamilton, ON, L8S 4M1
Canada
;
.
.
'Dabkowska, H.A.'
;
Brockhouse Institute of Materials Research
ABB-453, McMaster University
1280 Main St. W
Hamilton, ON, L8S 4M1
Canada
;
.
.
'Britten, J.'
;
Brockhouse Institute of Materials Research
ABB-453, McMaster University
1280 Main St. W
Hamilton, ON, L8S 4M1
Canada
;
.
.
'Luke, G.M.'
;
Brockhouse Institute of Materials Research
ABB-453, McMaster University
1280 Main St. W
Hamilton, ON, L8S 4M1
Canada

Department of Physics & Astronomy
ABB-241, McMaster University
1280 Main St. W
Hamilton, ON, L8S 4M1
Canada
;
.
.



_publ_section_title              
;
High Resolution X-Ray Single Crystal Analysis of V~2~O~3~ with Calcium Doping
[[This is a duplication report for article xx0000. Does this work.]]
;


# Related literature generated by publCIF 2012-05-16
_publ_section_related_literature
;
For related literature, see: Bouloux & Galy (1973); Maltsev & Janod (2001).
;

_publ_section_abstract           
;
The structure of (ca,V)2O3, Ca~0.20~O~3.04~V~1.80~, has trigonal
(<i>R</i>\=3<i>c</i>) symmetry. The structure exhibits disorder.
;

_publ_section_comment            
;
This experiment attempted to modify the crystal growth of calcium hypovanadate
CaV~4~O~9~ performed previously [Bouloux & Galy (1973). Acta Cryst. B29,
269--275; Maltsev & Janod (2001). J. Cryst. Growth 240. 170--175], replacing
stoichiometric quantities of VO~2~ with equivalents of V~2~O~3~ and CaCO~3~
and performing the reaction in a reducing atmosphere.

As a byproduct, this experiment produced exceptionally high quality crystals of
(Ca,V)~2~O~3~. Single crystal data of one of the numerous crystals produced is
reported here. Refinement at 0.5 \%A resolution shows that in the analyzed
sample 10% of the vanadium sites are substituted with calcium. Additionally,
based on charge balance 16% of vanadium sites are in the +IV oxidation state,
while the remainder are in the +III state. We also find from the difference
map that there is an inclusion of extra oxygen in the lattice with an
occupancy of 4%.
;

_publ_section_references         
;
Bouloux, J.-C. & Galy, J. (1973). <i>Acta Cryst.</i> B<b>29</b>, 269--275.

Farrugia, L. J. (1997). <i>J. Appl. Cryst.</i> <b>30</b>, 565--?.

Farrugia, L. J. (1999). <i>J. Appl. Cryst.</i> <b>32</b>, 837--838.

Flack, H. D. & Bernardinelli, G. (1999). <i>Acta Cryst.</i> A<b>55</b>,
908--915.

Flack, H. D. & Bernardinelli, G. (2000). <i>J. Appl. Cryst.</i> <b>33</b>,
1143--1148.

Maltsev, V. & Janod, E. (2001). <i>J. Cryst. Growth</i>, <b>240</b>, 170--175.

Sheldrick, G. M. (1997). <i>SHELXS97</i> and <i>SHELXL97</i>. University of
G\"ottingen, Germany.

Spek, A. L. (2003). <i>J. Appl. Cryst.</i> <b>36</b>, 7--13.
;

_publ_section_acknowledgements
;
The authors wish to acknowledge the assistance of Ms. Casey Marjerrison, Dr.
Antoni Dabkowski and the significant patience and instruction of Dr. Hilary
Jenkins regarding CIFs.
;
 
#==============================================================================
 
# CHEMICAL DATA
 
_chemical_name_systematic  
;
(Ca,V)2O3
;

_chemical_name_common                   'Vanadium Oxide doped with Calcium'
_chemical_formula_moiety                'Ca0.20 O3.04 V1.80'
_chemical_formula_sum                   'Ca0.20 O3.04 V1.80'
_chemical_formula_weight                148.35
 
#==============================================================================
 
# CRYSTAL DATA
 
_symmetry_cell_setting                  trigonal
_symmetry_space_group_name_H-M          'R -3 c'
_symmetry_space_group_name_Hall         '-R 3 2"c'
loop_
    _symmetry_equiv_pos_as_xyz
'x, y, z'
'-y, x-y, z'
'y, x, -z+1/2'
'-x+y, -x, z'
'-x, -x+y, -z+1/2'
'x-y, -y, -z+1/2'
'x+2/3, y+1/3, z+1/3'
'-y+2/3, x-y+1/3, z+1/3'
'y+2/3, x+1/3, -z+5/6'
'-x+y+2/3, -x+1/3, z+1/3'
'-x+2/3, -x+y+1/3, -z+5/6'
'x-y+2/3, -y+1/3, -z+5/6'
'x+1/3, y+2/3, z+2/3'
'-y+1/3, x-y+2/3, z+2/3'
'y+1/3, x+2/3, -z+7/6'
'-x+y+1/3, -x+2/3, z+2/3'
'-x+1/3, -x+y+2/3, -z+7/6'
'x-y+1/3, -y+2/3, -z+7/6'
'-x, -y, -z'
'y, -x+y, -z'
'-y, -x, z-1/2'
'x-y, x, -z'
'x, x-y, z-1/2'
'-x+y, y, z-1/2'
'-x+2/3, -y+1/3, -z+1/3'
'y+2/3, -x+y+1/3, -z+1/3'
'-y+2/3, -x+1/3, z-1/6'
'x-y+2/3, x+1/3, -z+1/3'
'x+2/3, x-y+1/3, z-1/6'
'-x+y+2/3, y+1/3, z-1/6'
'-x+1/3, -y+2/3, -z+2/3'
'y+1/3, -x+y+2/3, -z+2/3'
'-y+1/3, -x+2/3, z+1/6'
'x-y+1/3, x+2/3, -z+2/3'
'x+1/3, x-y+2/3, z+1/6'
'-x+y+1/3, y+2/3, z+1/6'
 
_cell_length_a                          4.94920(10)
_cell_length_b                          4.94920
_cell_length_c                          13.9944(4)
_cell_angle_alpha                       90
_cell_angle_beta                        90
_cell_angle_gamma                       120
_cell_volume                            296.862(10)
_cell_formula_units_Z                   6
_cell_measurement_reflns_used           1519
_cell_measurement_theta_min             5.58
_cell_measurement_theta_max             45.26
_cell_measurement_temperature           293(2)
_exptl_crystal_description              cubic
_exptl_crystal_colour                   black
_exptl_crystal_size_max                 0.02
_exptl_crystal_size_mid                 0.02
_exptl_crystal_size_min                 0.02
_exptl_crystal_density_diffrn           4.979
_exptl_crystal_density_method           'not measured'
_exptl_crystal_F_000                    418
_exptl_absorpt_coefficient_mu           8.725
_exptl_absorpt_correction_type          none
 
#==============================================================================
 
# EXPERIMENTAL DATA
 
_exptl_special_details
;
The sample was prepared by stoichiometrically mixing CaCO~3~ and V~2~O~3~ in an
attempt to create Ca~4~V~2~O~9~. The sample was heated uniformly in a tube
furnace to 800 degrees in 72 h, with the first step to 500 degrees taking 24
h. The material was held at 800 degrees for 24 h and cooled ambiently to room
temperature. The material was then re-reacted by heating the furnace to 1200
degrees at 100 degrees per hour and held at that temperature for 48 h, at
which point it was allowed to ambiently cool to room temperature. Both
reactions were done in a mixture of flowing carbon monoxide and carbon dioxide
in an approximately 1:20 ratio. A small, cube-shaped crystal was selected and
mounted to a thin glass fiber with epoxy.
;
_diffrn_ambient_temperature             293(2)
_diffrn_measurement_device_type         'CCD area detector'
_diffrn_measurement_method              'phi and omega scans'
_diffrn_radiation_probe                 x-ray
_diffrn_radiation_type                  MoK\a
_diffrn_radiation_wavelength            0.71073
_diffrn_source                          'fine-focus sealed tube'
_diffrn_source_type                     'Bruker APEX2'
_diffrn_radiation_monochromator         graphite
_diffrn_reflns_number                   2825
_diffrn_reflns_av_R_equivalents         0.0254
_diffrn_reflns_av_unetI/netI            0.0127
_diffrn_reflns_theta_min                5.58
_diffrn_reflns_theta_max                45.26
_diffrn_reflns_theta_full               45.26
_diffrn_measured_fraction_theta_max
                                        1
_diffrn_measured_fraction_theta_full
                                        1
_diffrn_reflns_limit_h_min              -9
_diffrn_reflns_limit_h_max              9
_diffrn_reflns_limit_k_min              -9
_diffrn_reflns_limit_k_max              9
_diffrn_reflns_limit_l_min              -27
_diffrn_reflns_limit_l_max              27
 
#==============================================================================
 
# STRUCTURE SOLUTION
 
_atom_sites_solution_primary            direct
_atom_sites_solution_secondary          difmap
_atom_sites_solution_hydrogens          .
 
#==============================================================================
 
# REFINEMENT DATA
 
_refine_special_details
;
Refinement of <i>F</i>^2^ against ALL reflections. The weighted <i>R</i>-factor
<i>wR</i> and goodness of fit <i>S</i> are based on <i>F</i>^2^, conventional
<i>R</i>-factors <i>R</i> are based on <i>F</i>, with <i>F</i> set to zero for
negative <i>F</i>^2^. The threshold expression of <i>F</i>^2^ >
2\s(<i>F</i>^2^) is used only for calculating <i>R</i>-factors(gt) <i>etc</i>.
and is not relevant to the choice of reflections for refinement.
<i>R</i>-factors based on <i>F</i>^2^ are statistically about twice as large
as those based on <i>F</i>, and <i>R</i>- factors based on ALL data will be
even larger.
;
_reflns_number_total                    283
_reflns_number_gt                       261
_reflns_threshold_expression            >2\s(I)
_refine_ls_structure_factor_coef        Fsqd
_refine_ls_matrix_type                  full
_refine_ls_R_factor_all                 0.0146
_refine_ls_R_factor_gt                  0.0131
_refine_ls_wR_factor_ref                0.031
_refine_ls_goodness_of_fit_ref          1.14
_refine_ls_restrained_S_all             1.14
_refine_ls_number_reflns                283
_refine_ls_number_parameters            12
_refine_ls_number_restraints            0
_refine_ls_hydrogen_treatment           noref
_refine_ls_weighting_scheme             calc
_refine_ls_weighting_details
         'calc w=1/[\s^2^(Fo^2^)+(0.0143P)^2^+0.1428P] where P=(Fo^2^+2Fc^2^)/3'
_refine_ls_shift/su_max                 0.001
_refine_ls_shift/su_mean                0
_refine_diff_density_max                0.39
_refine_diff_density_min                -0.401
_refine_diff_density_rms                0.115
_refine_ls_extinction_method            SHELXL
_refine_ls_extinction_coef              0.065(2)

_iucr_refine_instructions_details
;
TITL cavo in R -3 c
CELL  0.71073   4.9492   4.9492  13.9944   90.000   90.000  120.000
ZERR     6.00   0.0001   0.0000   0.0004    0.000    0.000    0.000
LATT   3
SYMM  - Y,   X - Y,   Z
SYMM    Y,   X, 1/2 - Z
SYMM  - X + Y, - X,   Z
SYMM  - X, - X + Y, 1/2 - Z
SYMM    X - Y, - Y, 1/2 - Z
SFAC  CA   O    V
UNIT  1.2    18.24   10.8
MERG   2
OMIT    -3.00 180.00
EADP V1 Ca1
EXYZ V1 Ca1
EADP O1 O2
FMAP   2
PLAN    5
ACTA
BOND
L.S.   4
WGHT    0.014300    0.142800
EXTI    0.064589
FVAR       0.20620   0.90196   0.03922
PART    1
V1    3    0.000000    0.000000    0.346283    20.33333    0.00492    0.00492 =
         0.00439    0.00000    0.00000    0.00246
PART    0
O1    2    0.312325    0.000000    0.250000    10.50000    0.00571    0.00568 =
         0.00646    0.00135    0.00067    0.00284
PART    2
CA1   1    0.000000    0.000000    0.346283   -20.33333    0.00492    0.00492 =
         0.00439    0.00000    0.00000    0.00246
PART    0
O2    2    0.000000    0.000000    0.500000    30.16667    0.00571    0.00568 =
         0.00646    0.00135    0.00067    0.00284
HKLF    4
 
REM  cavo in R -3 c
REM R1 =  0.0131 for    261 Fo > 4sig(Fo)  and  0.0146 for all    283 data
REM     12 parameters refined using      0 restraints
 
END
 
WGHT      0.0143      0.1428
REM Highest difference peak  0.390,  deepest hole -0.401,  1-sigma level  0.115
Q1    1   0.4913  0.0747  0.2265  11.00000  0.05    0.39
Q2    1   0.1973  0.0000  0.2500  10.50000  0.05    0.37
Q3    1   0.0000  0.0000  0.2500  10.16667  0.05    0.35
Q4    1   0.4822  0.0890  0.2760  11.00000  0.05    0.31
Q5    1   0.3467  0.1443  0.2334  11.00000  0.05    0.30
;

loop_
    _atom_type_symbol
    _atom_type_description
    _atom_type_scat_dispersion_real
    _atom_type_scat_dispersion_imag
    _atom_type_scat_source
Ca Ca 0.2262 0.3064 'International Tables Vol C Tables 4.2.6.8 and 6.1.1.4'
O O 0.0106 0.006 'International Tables Vol C Tables 4.2.6.8 and 6.1.1.4'
V V 0.3005 0.5294 'International Tables Vol C Tables 4.2.6.8 and 6.1.1.4'
 
_computing_data_collection              'Bruker APEX2 (Bruker, 2005)'
_computing_cell_refinement              'Bruker APEX2'
_computing_data_reduction               'Bruker SAINT (Bruker, 2005)'
_computing_structure_solution           'SUPERFLIP (Palatinus & Chapuis, 2007)'
_computing_structure_refinement         'SHELXL-97 (Sheldrick, 2008)'
_computing_molecular_graphics           'Ortep-3 for Windows (Farrugia, 1997)'
_computing_publication_material
                                   'WinGX publication routines (Farrugia, 1999)'

# start Validation Reply Form
_vrf_PLAT042_C
;
PROBLEM: Calc. and Reported MoietyFormula Strings  Differ          ?
RESPONSE: ShelXL doesn't seem to be able to handle the performed partial 
refinements and determine the smallest unit cell with an appropriate entry for
 the multiplicity.  The formulae as provided multipled by the multiplicities 
give equivalent values, although this is not recognized by CheckCIF.  This also
 generates the error PLAT045_C.
;

_vrf_PLAT077_C
;
PROBLEM: Unitcell contains non-integer number of atoms ..          ?
RESPONSE: This structure has mixed valence Vanadium due to the reducing 
conditions.  The structure was refined to give the partial occupancy which is 
reported as a fractional number within the formula giving non-integer values 
within the unit cell.
;
# end Validation Reply Form
 
#==============================================================================
 
# ATOMIC COORDINATES AND DISPLACEMENT PARAMETERS
 
loop_
    _atom_site_label
    _atom_site_fract_x
    _atom_site_fract_y
    _atom_site_fract_z
    _atom_site_U_iso_or_equiv
    _atom_site_adp_type
    _atom_site_calc_flag
    _atom_site_refinement_flags
    _atom_site_occupancy
    _atom_site_disorder_assembly
    _atom_site_disorder_group
    _atom_site_type_symbol
V1 0 0 0.346283(11) 0.00474(6) Uani d SP 0.90(3) . 1 V
O1 0.31232(12) 0 0.25 0.00595(14) Uani d S 1 . . O
Ca1 0 0 0.346283(11) 0.00474(6) Uani d SP 0.10(3) . 2 Ca
O2 0 0 0.5 0.00595(14) Uani d SP 0.039(5) . . O
 
loop_
    _atom_site_aniso_label
    _atom_site_aniso_U_11
    _atom_site_aniso_U_22
    _atom_site_aniso_U_33
    _atom_site_aniso_U_12
    _atom_site_aniso_U_13
    _atom_site_aniso_U_23
V1 0.00492(7) 0.00492(7) 0.00439(8) 0.00246(3) 0 0
O1 0.00571(19) 0.0057(2) 0.0065(2) 0.00284(12) 0.00067(8) 0.00135(16)
Ca1 0.00492(7) 0.00492(7) 0.00439(8) 0.00246(3) 0 0
O2 0.00571(19) 0.0057(2) 0.0065(2) 0.00284(12) 0.00067(8) 0.00135(16)
 
 
#==============================================================================
 
# MOLECULAR GEOMETRY
 
_geom_special_details
;
All s.u.'s (except the s.u. in the dihedral angle between two l.s. planes) are
estimated using the full covariance matrix. The cell s.u.'s are taken into
account individually in the estimation of s.u.'s in distances, angles and
torsion angles; correlations between s.u.'s in cell parameters are only used
when they are defined by crystal symmetry. An approximate (isotropic)
treatment of cell s.u.'s is used for estimating s.u.'s involving l.s. planes.
;
loop_
    _geom_bond_atom_site_label_1
    _geom_bond_atom_site_label_2
    _geom_bond_site_symmetry_2
    _geom_bond_distance
    _geom_bond_publ_flag
V1 O1 34_445 1.9682(3) ?
V1 O1 32 1.9683(3) ?
V1 O1 31_545 1.9683(3) ?
V1 O1 4 2.0506(5) ?
V1 O1 . 2.0506(5) ?
V1 O1 2 2.0506(5) ?
V1 O2 . 2.15117(17) ?
V1 V1 3 2.6949(3) ?
V1 V1 31_445 2.8803 ?
V1 V1 31 2.8803 ?
V1 V1 31_545 2.8803 ?
O1 Ca1 27 1.9683(3) ?
O1 V1 27 1.9683(3) ?
O1 Ca1 31_545 1.9683(3) ?
O1 V1 31_545 1.9683(3) ?
O1 Ca1 3 2.0506(5) ?
O1 V1 3 2.0506(5) ?
O2 Ca1 19_556 2.15117(17) ?
O2 V1 19_556 2.15117(17) ?
O2 Ca1 33 2.8632 ?
O2 Ca1 9_445 2.8632 ?
O2 Ca1 33_445 2.8632 ?
O2 Ca1 9 2.8631 ?
O2 Ca1 9_455 2.8632 ?
O2 Ca1 33_545 2.8632 ?
 
loop_
    _geom_angle_atom_site_label_1
    _geom_angle_atom_site_label_2
    _geom_angle_atom_site_label_3
    _geom_angle
    _geom_angle_site_symmetry_1
    _geom_angle_site_symmetry_3
    _geom_angle_publ_flag
O1 V1 O1 97.146(8) 34_445 32 ?
O1 V1 O1 97.145(8) 34_445 31_545 ?
O1 V1 O1 97.145(8) 32 31_545 ?
O1 V1 O1 88.458(6) 34_445 4 ?
O1 V1 O1 168.68(2) 32 4 ?
O1 V1 O1 91.881(13) 31_545 4 ?
O1 V1 O1 168.68(2) 34_445 . ?
O1 V1 O1 91.880(13) 32 . ?
O1 V1 O1 88.457(6) 31_545 . ?
O1 V1 O1 81.509(17) 4 . ?
O1 V1 O1 91.881(13) 34_445 2 ?
O1 V1 O1 88.458(5) 32 2 ?
O1 V1 O1 168.68(2) 31_545 2 ?
O1 V1 O1 81.509(17) 4 2 ?
O1 V1 O1 81.509(17) . 2 ?
O1 V1 O2 59.973(6) 34_445 . ?
O1 V1 O2 59.973(6) 32 . ?
O1 V1 O2 59.973(6) 31_545 . ?
O1 V1 O2 131.078(12) 4 . ?
O1 V1 O2 131.078(11) . . ?
O1 V1 O2 131.078(11) 2 . ?
O1 V1 V1 120.027(6) 34_445 3 ?
O1 V1 V1 120.027(6) 32 3 ?
O1 V1 V1 120.027(6) 31_545 3 ?
O1 V1 V1 48.922(12) 4 3 ?
O1 V1 V1 48.922(11) . 3 ?
O1 V1 V1 48.922(11) 2 3 ?
O2 V1 V1 180 . 3 ?
O1 V1 V1 45.371(13) 34_445 31_445 ?
O1 V1 V1 141.544(12) 32 31_445 ?
O1 V1 V1 96.221(14) 31_545 31_445 ?
O1 V1 V1 43.086(8) 4 31_445 ?
O1 V1 V1 124.397(12) . 31_445 ?
O1 V1 V1 85.257(5) 2 31_445 ?
O2 V1 V1 97.230(6) . 31_445 ?
V1 V1 V1 82.770(6) 3 31_445 ?
O1 V1 V1 96.222(14) 34_445 31 ?
O1 V1 V1 45.371(13) 32 31 ?
O1 V1 V1 141.543(12) 31_545 31 ?
O1 V1 V1 124.398(12) 4 31 ?
O1 V1 V1 85.256(5) . 31 ?
O1 V1 V1 43.087(8) 2 31 ?
O2 V1 V1 97.230(6) . 31 ?
V1 V1 V1 82.770(6) 3 31 ?
V1 V1 V1 118.441(3) 31_445 31 ?
O1 V1 V1 141.543(12) 34_445 31_545 ?
O1 V1 V1 96.220(14) 32 31_545 ?
O1 V1 V1 45.371(13) 31_545 31_545 ?
O1 V1 V1 85.257(5) 4 31_545 ?
O1 V1 V1 43.086(8) . 31_545 ?
O1 V1 V1 124.398(12) 2 31_545 ?
O2 V1 V1 97.230(6) . 31_545 ?
V1 V1 V1 82.770(6) 3 31_545 ?
V1 V1 V1 118.440(3) 31_445 31_545 ?
V1 V1 V1 118.440(3) 31 31_545 ?
Ca1 O1 Ca1 123.68(3) 27 31_545 ?
V1 O1 Ca1 123.68(3) 27 31_545 ?
Ca1 O1 V1 123.68(3) 27 31_545 ?
V1 O1 V1 123.68(3) 27 31_545 ?
Ca1 O1 Ca1 91.542(6) 27 3 ?
V1 O1 Ca1 91.542(6) 27 3 ?
Ca1 O1 Ca1 133.200(11) 31_545 3 ?
V1 O1 Ca1 133.200(11) 31_545 3 ?
Ca1 O1 V1 91.542(6) 27 3 ?
V1 O1 V1 91.542(6) 27 3 ?
Ca1 O1 V1 133.200(11) 31_545 3 ?
V1 O1 V1 133.200(11) 31_545 3 ?
Ca1 O1 V1 133.199(11) 27 . ?
V1 O1 V1 133.199(11) 27 . ?
Ca1 O1 V1 91.543(6) 31_545 . ?
V1 O1 V1 91.543(6) 31_545 . ?
Ca1 O1 V1 82.16(2) 3 . ?
V1 O1 V1 82.16(2) 3 . ?
V1 O2 Ca1 180 . 19_556 ?
V1 O2 V1 180 . 19_556 ?
V1 O2 Ca1 93.628(3) . 33 ?
Ca1 O2 Ca1 86.372(3) 19_556 33 ?
V1 O2 Ca1 86.372(3) 19_556 33 ?
V1 O2 Ca1 86.372(3) . 9_445 ?
Ca1 O2 Ca1 93.628(3) 19_556 9_445 ?
V1 O2 Ca1 93.628(3) 19_556 9_445 ?
Ca1 O2 Ca1 180 33 9_445 ?
V1 O2 Ca1 93.628(3) . 33_445 ?
Ca1 O2 Ca1 86.372(3) 19_556 33_445 ?
V1 O2 Ca1 86.372(3) 19_556 33_445 ?
Ca1 O2 Ca1 119.6040(10) 33 33_445 ?
Ca1 O2 Ca1 60.3960(10) 9_445 33_445 ?
V1 O2 Ca1 86.372(3) . 9 ?
Ca1 O2 Ca1 93.628(3) 19_556 9 ?
V1 O2 Ca1 93.628(3) 19_556 9 ?
Ca1 O2 Ca1 60.3960(10) 33 9 ?
Ca1 O2 Ca1 119.6040(10) 9_445 9 ?
Ca1 O2 Ca1 180 33_445 9 ?
V1 O2 Ca1 86.372(3) . 9_455 ?
Ca1 O2 Ca1 93.628(3) 19_556 9_455 ?
V1 O2 Ca1 93.628(3) 19_556 9_455 ?
Ca1 O2 Ca1 60.3970(10) 33 9_455 ?
Ca1 O2 Ca1 119.6030(10) 9_445 9_455 ?
Ca1 O2 Ca1 60.3970(10) 33_445 9_455 ?
Ca1 O2 Ca1 119.6030(10) 9 9_455 ?
V1 O2 Ca1 93.628(3) . 33_545 ?
Ca1 O2 Ca1 86.372(3) 19_556 33_545 ?
V1 O2 Ca1 86.372(3) 19_556 33_545 ?
Ca1 O2 Ca1 119.6030(10) 33 33_545 ?
Ca1 O2 Ca1 60.3970(10) 9_445 33_545 ?
Ca1 O2 Ca1 119.6030(10) 33_445 33_545 ?
Ca1 O2 Ca1 60.3970(10) 9 33_545 ?
Ca1 O2 Ca1 180 9_455 33_545 ?
 
# The following lines are used to test the character set of files sent by
# network email or other means. They are not part of the CIF data set
# abcdefghijklmnopqrstuvwxyzABCDEFGHIJKLMNOPQRSTUVWXYZ0123456789
# !@#$%^&*()_+{}:"~<>?|\-=[];'`,./
 
# END of CIF

